LAMMPS data file via write_data, version 2 Aug 2023, timestep = 200217, units = real

901 atoms
3 atom types
600 bonds
1 bond types
300 angles
1 angle types

-10.357685492432827 10.357685492432827 xlo xhi
-10.357685492432827 10.357685492432827 ylo yhi
-10.357685492432827 10.357685492432827 zlo zhi

Masses

1 15.9994
2 1.0079
3 22.989

Atoms # full

562 188 1 -1.04844 -7.227945970146495 -6.291480523827626 -9.079758561802205 1 0 1
614 205 2 0.52422 -9.764588188383454 -2.640569387979099 -7.798109715173801 1 0 -1
126 42 2 0.52422 -7.925360613806664 -4.548920151038415 -6.7663316212395035 1 -1 1
593 198 2 0.52422 -4.272748244339998 -7.528605952025 -6.452671549424208 1 -1 0
747 249 2 0.52422 -0.9113210051994951 -2.90105038772597 -7.164529509244204 0 0 0
373 125 1 -1.04844 -8.882615771548952 -9.519920156600556 -8.452838350653145 0 0 1
834 278 2 0.52422 -8.770411202022913 -3.291834623187941 -10.162757229636043 1 1 1
802 268 1 -1.04844 -0.7117990619361176 -6.35026580055071 -6.747857994970465 1 1 1
745 249 1 -1.04844 -1.8427584837781943 -2.686249716494955 -7.210041650904106 0 0 0
303 101 2 0.52422 -6.799697932168302 -9.85345638274453 -8.92986186866967 0 1 0
374 125 2 0.52422 -9.359088813196491 -9.649206089274166 -7.63305670720133 0 0 1
803 268 2 0.52422 -1.282902265569346 -7.093815365226403 -6.939591272789933 1 1 1
24 8 2 0.52422 -6.079198814536418 -1.1497587261070414 -7.462219672010503 -1 -1 0
819 273 2 0.52422 -5.511517849042443 -6.645909182769661 -8.662926245947546 1 1 0
444 148 2 0.52422 -2.7460822330341426 -4.240054461617719 -7.6823984854855425 0 1 1
818 273 2 0.52422 -4.212466271180822 -6.373162952727789 -7.935705311236707 1 1 0
36 12 2 0.52422 -1.6782820971720298 -9.535030900613993 -7.066106666085608 0 1 0
564 188 2 0.52422 -8.040706450512575 -6.751616740317127 -8.871232547730575 1 0 1
364 122 1 -1.04844 -9.940733976589847 -6.96425762710723 -8.787115720251808 0 0 1
234 78 2 0.52422 -2.569874607433099 -1.0601143616419524 -9.88176773079922 0 0 1
302 101 2 0.52422 -5.789684001469169 -8.757626620937588 -8.665666867993696 0 1 0
716 239 2 0.52422 -8.59728701310941 -0.9042799927168996 -9.542957404995152 1 0 -1
134 45 2 0.52422 -9.942988083689395 -9.507707007439963 -5.335111521278561 -1 0 0
804 268 2 0.52422 -0.5595346967548025 -5.939086247860328 -7.5984636144901465 1 1 1
438 146 2 0.52422 -0.15316864892913173 -5.640560577808669 -10.210137652515797 -1 0 0
433 145 1 -1.04844 -5.35475851633679 -2.8256407186707637 -7.85324045416636 -1 0 1
443 148 2 0.52422 -3.063228896638429 -5.128994128117781 -8.865609451917244 0 1 1
699 233 2 0.52422 -6.352294521298278 -0.14160627195121478 -5.5384527604920955 1 1 -1
746 249 2 0.52422 -1.8894871612080824 -1.9488253753922677 -7.81816009626405 0 0 0
435 145 2 0.52422 -4.655766285635468 -3.3831188487668404 -8.194430387752291 -1 0 1
124 42 1 -1.04844 -8.031090013822444 -4.2328700475406285 -7.663391679299108 1 -1 1
232 78 1 -1.04844 -1.82462920197875 -0.8983322237102787 -9.303647792465155 0 0 1
592 198 1 -1.04844 -3.9794801567491387 -7.873877593748697 -5.6097192642924 1 -1 0
34 12 1 -1.04844 -1.8431273622193114 -8.834904768247913 -7.697326044899178 0 1 0
504 168 2 0.52422 -0.4151288728915077 -8.78180183792263 -8.781392061926692 -1 0 1
434 145 2 0.52422 -6.150637211057178 -3.346095531684603 -7.960419710604437 -1 0 1
715 239 1 -1.04844 -8.67612437762913 -0.07169877733044672 -9.077788496697375 1 0 -1
722 241 2 0.52422 -0.8170644583254756 -5.218091993820563 -5.278705102106221 0 1 0
442 148 1 -1.04844 -3.381178301234004 -4.8829837769057844 -7.997174562673081 0 1 1
125 42 2 0.52422 -7.8262512911864315 -4.990817101271441 -8.210518711318699 1 -1 1
347 116 2 0.52422 -4.507572579380683 -2.26573046857429 -10.224123725181096 -1 1 -1
35 12 2 0.52422 -2.4299928737755465 -9.227508983967487 -8.34326724089843 0 1 0
817 273 1 -1.04844 -4.879033296506488 -7.047084328234533 -8.067268994387911 1 1 0
375 125 2 0.52422 -9.160103816610356 -8.656404182288405 -8.758009770130595 0 0 1
338 113 2 0.52422 -8.60427617106346 -7.344546838713941 -5.185509133848815 0 1 0
301 101 1 -1.04844 -5.868796788693001 -9.646799849471254 -9.010480409190839 0 1 0
33 11 2 0.52422 -10.015169116645586 -9.869982917534431 -9.913804802076175 -1 0 0
534 178 2 0.52422 -0.33117685332967106 -1.9228603528226618 -9.518502133828548 -1 -1 0
385 129 1 -1.04844 -10.120966440100414 -0.4470109772036128 -5.80567493925792 0 0 1
563 188 2 0.52422 -7.2690356991017 -6.148320955558812 -10.025064999660188 1 0 1
368 123 2 0.52422 -4.19587777483237 -10.32288708429644 -9.468053281636612 0 1 1
367 123 1 -1.04844 -3.2647363637768336 -10.20707771261488 -9.656078540014635 0 1 1
545 182 2 0.52422 -2.8376046131506385 -9.559451669878044 -5.540327724910313 1 -1 0
387 129 2 0.52422 -10.334237241756513 -1.1852366425578076 -6.376048517217882 0 0 1
365 122 2 0.52422 -10.318074642308366 -6.480780386215239 -8.052504613220389 0 0 1
22 8 1 -1.04844 -6.525572570977664 -0.31040448805677023 -7.352569834511559 -1 -1 0
23 8 2 0.52422 -7.250601729892027 -0.34093576106491774 -7.9764196560106475 -1 -1 0
337 113 1 -1.04844 -8.460281577033848 -6.403797681302091 -5.285723790506896 0 1 0
848 283 2 0.52422 -4.041294032098536 -4.632880935024758 -1.0699394432895488 1 0 0
649 217 1 -1.04844 -7.346902146799637 -2.2579841188359833 -3.205186995013247 1 -1 1
177 59 2 0.52422 -5.006790324076352 -7.150743236494939 -3.146936473520701 -1 0 1
475 159 1 -1.04844 -6.293072517309255 -4.484950399453947 -4.483454937205044 0 1 1
82 28 1 -1.04844 -2.0330244701068256 -7.889794535898413 -1.8772259674923877 0 0 0
477 159 2 0.52422 -5.508906884220904 -5.010960484153336 -4.638953019502672 0 1 1
650 217 2 0.52422 -7.353566270136843 -1.6720680686003444 -3.9617861831749472 1 -1 1
21 7 2 0.52422 -0.23208683216120995 -0.8823930513709932 -4.935817975473114 -1 -1 0
288 96 2 0.52422 -1.9996877908423372 -1.8558884386303944 -1.0555024463515856 0 0 -1
813 271 2 0.52422 -8.02275759488063 -3.5201871982686397 -0.49704260894879404 1 1 0
698 233 2 0.52422 -5.639042305020279 -0.053265693049121765 -4.206441075050544 1 1 -1
721 241 1 -1.04844 -0.5958769117856502 -4.6892046219685435 -4.512454857144456 0 1 0
245 82 2 0.52422 -0.12614623367692168 -1.1402710930042446 -1.161385650910173 -1 0 1
221 74 2 0.52422 -6.190732470494291 -4.872522455550824 -0.16994319872395458 0 0 1
811 271 1 -1.04844 -8.674552293825764 -2.9044781538234448 -0.8314823775778954 1 1 0
359 120 2 0.52422 -9.884720149952182 -5.82608627284376 -2.3571623128952233 0 1 0
777 259 2 0.52422 -1.6104428649754645 -1.9617453317449574 -3.287785125928422 0 0 -1
723 241 2 0.52422 -1.0440167000665355 -5.120957211668391 -3.7854394285378667 0 1 0
812 271 2 0.52422 -8.271274142273704 -2.5298769035553548 -1.614315122758768 1 1 0
875 292 2 0.52422 -1.899098475572524 -10.084875046712712 -3.8428425493895944 1 0 0
696 232 2 0.52422 -8.409112656831502 -7.601603114001817 -1.9979516987093913 1 1 0
884 295 2 0.52422 -3.5644059568949995 -0.8122533279860882 -3.4435058241349887 1 1 0
352 118 1 -1.04844 -5.622191806294817 -1.4510902571814412 -0.8357536960858045 1 1 0
651 217 2 0.52422 -6.89374868884942 -3.0425357686869603 -3.51327900395344 1 -1 1
847 283 1 -1.04844 -4.596534993997724 -4.185182529796545 -0.4319300776307422 1 0 0
695 232 2 0.52422 -7.145558915027718 -7.765670134755357 -2.814828947904103 1 1 0
476 159 2 0.52422 -7.020426449587104 -5.088674230858379 -4.632644267464665 0 1 1
694 232 1 -1.04844 -7.614534596526942 -7.139320646466224 -2.26388756080385 1 1 0
83 28 2 0.52422 -2.1407197854287983 -8.759092891693443 -2.262603935155539 0 0 0
176 59 2 0.52422 -3.6943665559425787 -7.055602005155529 -2.3990983556451457 -1 0 1
704 235 2 0.52422 -5.937566655907772 -9.676117990867603 -3.3798082766308317 1 0 -1
222 74 2 0.52422 -7.176124639708995 -5.8912483250537395 -0.7009597943097781 0 0 1
705 235 2 0.52422 -5.750657364271737 -8.803797793038495 -4.602468015421145 1 0 -1
873 291 2 0.52422 -1.8970316212722302 -6.2009150765217775 -2.1946763967291805 0 1 0
19 7 1 -1.04844 -0.04996624821835027 -1.6030245245802703 -4.333065332297268 -1 -1 0
135 45 2 0.52422 -8.689367809830818 -9.602553748079957 -4.492365873806 -1 0 0
872 291 2 0.52422 -1.4185032363228416 -4.985394861838223 -1.4302841725291309 0 1 0
871 291 1 -1.04844 -1.718147008696926 -5.266147490712642 -2.294677123469336 0 1 0
883 295 1 -1.04844 -4.131659366512366 -0.04515442347068266 -3.5181581771659145 1 1 0
175 59 1 -1.04844 -4.268404653227726 -6.5636958004539565 -2.9858630507089874 -1 0 1
824 275 2 0.52422 -10.204802175255516 -2.2349189628130226 -2.490424706669498 0 0 1
874 292 1 -1.04844 -1.7937787385129393 -10.33244151121659 -2.9244697077119266 1 0 0
358 120 1 -1.04844 -10.10390073906512 -5.5255157212543144 -3.238866247102056 0 1 0
703 235 1 -1.04844 -6.135655187916475 -8.806379100481728 -3.7263666354367393 1 0 -1
84 28 2 0.52422 -1.6096350316432293 -8.051752650826515 -1.0344362761021895 0 0 0
339 113 2 0.52422 -8.890844685317319 -6.012876005982561 -4.525732284210039 0 1 0
354 118 2 0.52422 -6.238385173824938 -1.2497380914343328 -1.5397054146397213 1 1 0
286 96 1 -1.04844 -1.371363031853079 -2.051394061725116 -0.36068337931795647 0 0 -1
775 259 1 -1.04844 -2.4650990862429767 -2.101277401814631 -2.88050020687903 0 0 -1
47 16 2 0.52422 -10.345267786925701 -8.70393818086763 -3.59017995450775 0 -1 0
776 259 2 0.52422 -2.6684853361729486 -3.019363007746483 -3.058086318821438 0 0 -1
594 198 2 0.52422 -3.7974378732203204 -7.096442416365028 -5.082236882688466 1 -1 0
20 7 2 0.52422 -0.1494248542603458 -2.3920241936736044 -4.865394582773786 -1 -1 0
353 118 2 0.52422 -5.622866972318963 -2.406562015965246 -0.7822988155025357 1 1 0
133 45 1 -1.04844 -9.36060550092839 -8.985767163340757 -4.783566583967868 -1 0 0
115 39 1 -1.04844 -2.540075030742451 -10.287375892084162 3.829738504014749 1 0 1
342 114 2 0.52422 -1.2921511666139214 -7.5718461674265125 2.0345632865404237 -1 2 1
446 149 2 0.52422 -8.572295957751729 -1.5033278182012477 3.0170475187650023 0 0 0
853 285 1 -1.04844 -9.133533170785038 -5.774720048482494 3.5259559765796133 1 1 -1
779 260 2 0.52422 -3.701331205091493 -7.682132603227116 2.4704950352698365 0 0 0
341 114 2 0.52422 -1.390946921750798 -6.308821338675907 1.2064425737243862 -1 2 1
14 5 2 0.52422 -8.350312515878983 -9.902492851420481 0.07473696739669222 1 0 -1
556 186 1 -1.04844 -0.43928433843544745 -4.655178336966183 0.4644162174697968 0 1 -1
79 27 1 -1.04844 -4.869841932361769 -5.661367560608741 4.812353327538466 -1 0 0
797 266 2 0.52422 -4.212691513930829 -3.028244198495484 2.159092472669583 0 1 0
81 27 2 0.52422 -5.055014890446868 -4.973609712201424 4.173223015692365 -1 0 0
792 264 2 0.52422 -7.1831067431329 -6.4243840170268385 1.1477048922769058 0 1 0
293 98 2 0.52422 -9.821250682125912 -8.956733398492764 1.720285998217335 0 0 -1
449 150 2 0.52422 -5.886296918571758 -3.2926333541294674 4.204017736541706 1 1 0
292 98 1 -1.04844 -9.405401478493753 -8.564610881080213 0.9527598515634352 0 0 -1
447 149 2 0.52422 -9.906118093669 -0.916992751647518 3.426806591275465 0 0 0
778 260 1 -1.04844 -4.603457613414569 -7.6529735389734554 2.7884577881245693 0 0 0
710 237 2 0.52422 -9.228674218649722 -4.356879149293992 4.7944796790083135 2 0 0
711 237 2 0.52422 -9.155539564997333 -2.867595551851358 4.534746645034183 2 0 0
340 114 1 -1.04844 -1.6212869835548354 -7.237633586454802 1.200443157426852 -1 2 1
855 285 2 0.52422 -8.447480022886168 -5.642228171732997 2.8720741561701804 1 1 -1
791 264 2 0.52422 -6.282438664928336 -7.107747836228754 2.1539803519837797 0 1 0
183 61 2 0.52422 -6.318251436830868 -0.5669314620194772 2.454178313433559 1 0 1
706 236 1 -1.04844 -1.855442588502143 -2.6004502216992273 4.0626008567189835 1 0 -1
450 150 2 0.52422 -6.149058741726757 -2.6507580674944116 2.8587569381317905 1 1 0
849 283 2 0.52422 -3.9828368381714236 -3.814482427288426 0.201902496792707 1 0 0
798 266 2 0.52422 -3.028072642770576 -2.193111500156613 1.7231876967383233 0 1 0
790 264 1 -1.04844 -7.19985776329057 -7.020656237116844 1.8960187614185546 0 1 0
669 223 2 0.52422 -1.0747377388585946 -7.824287068358272 4.281644860536158 0 0 1
116 39 2 0.52422 -1.8856688543555897 -9.609152906234025 3.6637506897350534 1 0 1
448 150 1 -1.04844 -5.7154129833834375 -3.399012745955048 3.2684590004827196 1 1 0
294 98 2 0.52422 -8.591652386326006 -8.187904913387461 1.2869675211482026 0 0 -1
80 27 2 0.52422 -4.530061740353913 -6.3882990140757245 4.2909058438237615 -1 0 0
181 61 1 -1.04844 -6.87299923018613 -1.2346457401415574 2.0514294361516985 1 0 1
558 186 2 0.52422 -0.6791598109672226 -3.729078171575643 0.48856372751175137 0 1 -1
97 33 1 -1.04844 -5.492664303571613 -10.25650373841548 2.006950888976114 0 0 0
796 266 1 -1.04844 -3.320139823707823 -3.0991259862448093 1.8212837829090756 0 1 0
831 277 2 0.52422 -1.9427144205824156 -3.9394132917168623 5.152363868045985 -1 0 0
287 96 2 0.52422 -1.6518992909972834 -1.5089339820619099 0.37608692410502087 0 0 -1
727 243 1 -1.04844 -2.3367392246380803 -0.5390608137018429 1.4324416223591232 0 0 0
182 61 2 0.52422 -6.655331180793343 -1.1976974097012913 1.120279658990322 1 0 1
521 174 2 0.52422 -10.300257719981595 -3.1623225371550445 0.2966556233718638 1 0 -1
854 285 2 0.52422 -8.818183296800555 -6.5032699156571665 4.060332927923616 1 1 -1
780 260 2 0.52422 -4.8372314906783815 -8.569876214217038 2.9313763958937464 0 0 0
707 236 2 0.52422 -1.177679842170022 -2.092463516531085 3.6172064223658094 1 0 -1
708 236 2 0.52422 -2.516162109124828 -2.7612603712092056 3.3892671595440103 1 0 -1
445 149 1 -1.04844 -9.472786547281801 -1.7472510527397915 3.2301351138278065 0 0 0
667 223 1 -1.04844 -0.6267042112673806 -8.346248823834197 3.616358048332529 0 0 1
99 33 2 0.52422 -6.2756915682073116 -10.219830390766388 1.458035625908984 0 0 0
522 174 2 0.52422 -10.189711845888693 -2.612097518216915 1.7022882396401364 1 0 -1
728 243 2 0.52422 -2.6408734482480014 -0.03198870221668315 0.6799960368999471 0 0 0
220 74 1 -1.04844 -7.037291601098027 -5.276645417173696 0.019300915311365685 0 0 1
204 68 2 0.52422 -6.2790162705534005 -1.7405644035845196 6.150058521096119 0 -1 1
879 293 2 0.52422 -2.634030591062653 -8.445058797320913 8.51210285529532 0 0 -1
525 175 2 0.52422 -5.705466697792009 -7.148481862385731 5.717618209106115 1 0 -1
878 293 2 0.52422 -3.4408977512119296 -8.648433748612888 9.77637565880998 0 0 -1
185 62 2 0.52422 -0.8627403007496035 -9.663781124126537 7.873651099013509 0 0 0
765 255 2 0.52422 -2.9560597953018677 -3.3247253524337683 7.349669350053331 0 1 -1
524 175 2 0.52422 -6.098448685929893 -7.714773309803839 7.065080504577841 1 0 -1
774 258 2 0.52422 -10.146556706196323 -9.186846549295256 6.425890114506425 0 2 0
227 76 2 0.52422 -8.152271279371238 -7.056021448743973 8.873246599330345 0 0 0
346 116 1 -1.04844 -4.1329242194003095 -1.5134229176413854 10.03358618193486 -1 1 -2
228 76 2 0.52422 -9.162733403219223 -5.975457477062962 9.19282093995327 0 0 0
188 63 2 0.52422 -8.359088398453375 -4.491990940840176 8.170001625042781 0 1 0
686 229 2 0.52422 -0.8642321157829151 -0.8929313620466619 7.378898185329588 0 0 0
186 62 2 0.52422 -1.2453187631916247 -8.509582030600296 6.972410604868751 0 0 0
529 177 1 -1.04844 -8.80057498055552 -7.797445954103308 5.268986433349744 1 1 -1
169 57 1 -1.04844 -2.1097675665973856 -0.7604559603004439 6.125086295973974 -1 0 0
162 54 2 0.52422 -0.869899718905323 -3.214442556254034 8.855539158945723 1 0 0
254 85 2 0.52422 -2.139385586709782 -5.175178120884084 9.505964254626344 1 0 -1
832 278 1 -1.04844 -8.439298918406092 -2.465004914828583 10.202615390565784 1 1 0
882 294 2 0.52422 -9.52216009520478 -8.747259505227284 8.900882592897629 1 1 -1
202 68 1 -1.04844 -6.099072075432297 -2.6707186511598557 6.0150877557831866 0 -1 1
806 269 2 0.52422 -3.0204594008151275 -10.121561776043148 6.732808294185174 0 0 1
348 116 2 0.52422 -4.00392525236932 -1.8186226901669649 9.135811177907266 -1 1 -2
161 54 2 0.52422 -0.1775703763600447 -3.897965553094185 7.696123982666814 1 0 0
881 294 2 0.52422 -8.279850959977072 -9.34327911396544 8.274620281569446 1 1 -1
170 57 2 0.52422 -2.670170314787568 -1.3432318195225967 6.637055285291934 -1 0 0
160 54 1 -1.04844 -0.7892744700972987 -4.0596601340188965 8.414075958583863 1 0 0
505 169 1 -1.04844 -0.5934751782733265 -6.921141231288301 6.352905289007827 0 -1 -1
877 293 1 -1.04844 -3.1424890140477375 -7.971063494144154 9.169819188502606 0 0 -1
255 85 2 0.52422 -2.640775030665674 -6.501017666776557 10.036561260257015 1 0 -1
763 255 1 -1.04844 -3.5712241609097957 -2.6036940194055074 7.481849836560096 0 1 -1
3 1 2 0.52422 -5.949539928464465 -6.7784295852614935 8.764698007848411 1 0 0
184 62 1 -1.04844 -1.6097156061419735 -9.27190220763652 7.421715174240829 0 0 0
189 63 2 0.52422 -8.620952924684948 -3.6141511680207525 6.965177237141292 0 1 0
1 1 1 -1.04844 -5.778600802944685 -7.716048282654695 8.85091617357107 1 0 0
171 57 2 0.52422 -1.8990126580065532 -1.2612162692709745 5.337298988248534 -1 0 0
2 1 2 0.52422 -4.824296176904924 -7.787317656948104 8.846840292285139 1 0 0
830 277 2 0.52422 -3.076155322487649 -4.932838105561183 5.29091464588698 -1 0 0
203 68 2 0.52422 -6.847597754751895 -3.11935142795798 6.407803009017767 0 -1 1
764 255 2 0.52422 -4.32124000121129 -2.8239502540397394 6.9298067686974445 0 1 -1
506 169 2 0.52422 -1.1381212431241607 -6.137948822117543 6.428777092676009 0 -1 -1
523 175 1 -1.04844 -6.239310302652798 -7.829931160538692 6.125568595061834 1 0 -1
829 277 1 -1.04844 -2.1963298306461922 -4.738722515562687 5.61342180352824 -1 0 0
530 177 2 0.52422 -7.868108397159183 -8.008105392793794 5.2252187067356655 1 1 -1
226 76 1 -1.04844 -8.225089644371991 -6.122380363683032 9.070224805464042 0 0 0
822 274 2 0.52422 -6.297555758551665 -9.556347471463186 5.873907433196161 2 1 0
880 294 1 -1.04844 -8.894217372801315 -8.61432877879601 8.191089595826911 1 1 -1
329 110 2 0.52422 -6.4220804024463485 -9.470177576003337 8.787167737686522 0 0 -1
187 63 1 -1.04844 -8.109921835073619 -3.657620892162143 7.7731040196955 0 1 0
531 177 2 0.52422 -8.981737769420418 -7.703701265995242 6.203960672405897 1 1 -1
833 278 2 0.52422 -8.179170677737165 -2.6714043359071677 9.305107634367639 1 1 0
685 229 1 -1.04844 -0.14252653727874431 -1.0477755931986366 7.987957643351217 0 0 0
253 85 1 -1.04844 -2.269782943129771 -5.664895484611742 10.317726083415758 1 0 -1
709 237 1 -1.04844 -9.060098598498067 -3.5204892499099367 5.227863347300859 2 0 0
527 176 2 0.52422 -10.314642744333945 -0.3784933143975522 7.702523375109747 1 0 -1
687 229 2 0.52422 -0.1957222091422608 -0.32416569673508633 8.611931630340807 0 0 0
328 110 1 -1.04844 -6.991707214582083 -10.212097627817009 8.98931858165078 0 0 -1
257 86 2 0.52422 -6.827136102004902 8.167969014532995 -7.000063751068388 0 0 0
648 216 2 0.52422 -7.559678119017564 4.438616042921463 -8.489831633242325 1 -1 0
233 78 2 0.52422 -1.8852127218442085 0.032235952720730765 -9.088807288663812 0 0 1
73 25 1 -1.04844 -4.60151526420174 2.0019535340678942 -8.063949503726162 0 0 2
249 83 2 0.52422 -2.8796534996333563 3.5953187245272016 -7.118211082312268 0 0 0
646 216 1 -1.04844 -6.628546196856419 4.379131568492976 -8.702550293905574 1 -1 0
666 222 2 0.52422 -5.951151742505043 4.286732672491269 -7.1424935782086925 1 0 1
251 84 2 0.52422 -9.845248149243004 5.529284460168505 -8.151312302462431 1 0 0
535 179 1 -1.04844 -10.087913658907656 8.43025085907576 -8.095992219871114 0 0 0
463 155 1 -1.04844 -0.7742974287173556 1.6861312201823573 -8.499950537789065 0 1 1
675 225 2 0.52422 -8.720464923305107 2.604399520856729 -5.267656994491384 0 0 0
673 225 1 -1.04844 -9.220748475674494 2.339648925217295 -6.039282109519883 0 0 0
674 225 2 0.52422 -9.18220186002572 1.3834755912418455 -6.033759183816711 0 0 0
74 25 2 0.52422 -5.342332861320296 2.604018901271715 -8.130964292169459 0 0 2
536 179 2 0.52422 -9.4017711503606 8.22932301285662 -8.73209097848083 0 0 0
275 92 2 0.52422 -5.063366667515705 6.104254885132539 -9.80887279853036 1 0 0
250 84 1 -1.04844 -8.948792979381059 5.391222022909117 -7.84620665833538 1 0 0
247 83 1 -1.04844 -2.120105345715503 4.159860861311447 -7.260209235142097 0 0 0
816 272 2 0.52422 -4.725021671861033 7.797426224960612 -6.141197259359157 0 0 0
465 155 2 0.52422 -0.8918338757698727 2.5006832380595956 -8.01161285633793 0 1 1
75 25 2 0.52422 -4.94465332039852 1.2524939226863054 -7.577790681552663 0 0 2
758 253 2 0.52422 -8.866083103915644 7.796177790382361 -6.585146761285461 1 0 0
252 84 2 0.52422 -9.043531070938709 5.147204831126832 -6.925736488893065 1 0 0
647 216 2 0.52422 -6.42701840344656 5.210173355319707 -9.132135945154019 1 -1 0
248 83 2 0.52422 -2.0690940399640745 4.696768546487601 -6.469696021871083 0 0 0
343 115 1 -1.04844 -3.112229491510827 5.360246989755337 -9.649236596123096 0 0 1
759 253 2 0.52422 -8.089628317573428 6.722706234087118 -5.853332405640216 1 0 0
274 92 1 -1.04844 -5.67986987178358 6.835398435180549 -9.842602506732032 1 0 0
665 222 2 0.52422 -5.953656270871609 3.8287809599198006 -5.699907679932998 1 0 1
276 92 2 0.52422 -5.637162450617362 7.225703801427008 -8.969888984037576 1 0 0
63 21 2 0.52422 -0.8546573726177336 8.066875291397983 -5.946328549266244 -1 -1 0
143 48 2 0.52422 -0.2174087083175653 5.8165320420443205 -8.688619767701471 0 -1 1
94 32 1 -1.04844 -0.580200607294147 0.7460535824380319 -5.6565657489562255 1 0 0
61 21 1 -1.04844 -1.572957292845686 7.467016079569289 -5.746331567946769 -1 -1 0
815 272 2 0.52422 -3.250701795960219 7.710643203435891 -5.81008984626749 0 0 0
717 239 2 0.52422 -8.497746609954751 0.5926590274810994 -9.743070176933616 1 0 -1
256 86 1 -1.04844 -6.153050507112327 8.251298537749781 -7.674194201035388 0 0 0
546 182 2 0.52422 -2.9781864821554453 9.6648452541913 -5.758756264820946 1 -2 0
735 245 2 0.52422 -3.1214390231589384 7.228105433882428 -10.224225950508302 0 0 1
544 182 1 -1.04844 -2.3386737775257878 10.339359497512108 -5.531075263741191 1 -2 0
77 26 2 0.52422 -4.629164532708073 1.4766490316545209 -9.82321943739155 -1 -1 1
344 115 2 0.52422 -2.868906717874351 4.86437627011081 -8.867767453118548 0 0 1
757 253 1 -1.04844 -8.203374179207954 7.671420627071479 -5.906148951691534 1 0 0
258 86 2 0.52422 -6.354333980381244 9.077041637251456 -8.113985078364458 0 0 0
96 32 2 0.52422 -0.776478192788284 0.8919404608166204 -6.581756039354746 1 0 0
369 123 2 0.52422 -2.9940677726786724 9.678284289751664 -10.048008899396155 0 0 1
814 272 1 -1.04844 -4.097697793173113 7.950855669895104 -5.435005394858749 0 0 0
664 222 1 -1.04844 -5.4216838470052915 4.293718605998315 -6.345371117685041 1 0 1
742 248 1 -1.04844 -8.197679075339783 7.922909012213717 -10.305196665310218 0 -1 1
743 248 2 0.52422 -7.304384104367901 7.60306292232867 -10.180639330377444 0 -1 1
38 13 2 0.52422 -8.261637353939916 8.659126294272637 -4.3329082964098005 0 0 0
633 211 2 0.52422 -8.732466744269063 5.426020915048186 -4.248020160646542 0 0 0
454 152 1 -1.04844 -5.3662290418478795 9.459395170173993 -2.7070293745806238 -1 0 0
401 134 2 0.52422 -5.0722443586264285 5.480133030852514 -4.763082149247528 1 0 0
826 276 1 -1.04844 -2.2661556165144123 2.610358501517723 -4.428411915238115 0 -1 0
356 119 2 0.52422 -9.549060599017272 6.224361034346371 -1.8678654116503566 1 0 0
273 91 2 0.52422 -6.484824852242733 2.78179616057289 -1.1849904504878612 0 1 -1
827 276 2 0.52422 -1.7974249184956719 1.9882052622357786 -4.984293079417275 0 -1 0
488 163 2 0.52422 -6.112863504850532 5.227414946125098 -1.2337924492654668 1 -1 0
400 134 1 -1.04844 -4.861034106615243 5.815989052020866 -3.892233862943887 1 0 0
305 102 2 0.52422 -5.896961211659916 0.29556980886144935 -0.9961975679707393 1 0 0
455 152 2 0.52422 -4.904860964123972 8.968780267543108 -3.386898573115862 -1 0 0
632 211 2 0.52422 -7.846623232521057 4.255019392890981 -4.615188704128886 0 0 0
174 58 2 0.52422 -6.664574693007452 2.0034831336069345 -4.152623900917714 0 -1 1
402 134 2 0.52422 -4.351961223400551 6.609189131124138 -4.057962172319447 1 0 0
900 300 2 0.52422 -6.47378682128827 7.017160455732876 -0.03204745198027581 2 1 1
487 163 1 -1.04844 -5.629771603794899 6.052660357349589 -1.196620260829258 1 -1 0
179 60 2 0.52422 -1.997229073442055 7.586968694062149 -2.1488452429091556 0 0 1
876 292 2 0.52422 -2.2082364857455854 9.52286746408979 -2.858782111845473 1 -1 0
640 214 1 -1.04844 -0.8497762290143047 5.0975610709515 -4.069618335522432 1 0 0
62 21 2 0.52422 -1.2776421552176185 6.988875474288795 -4.971765348157636 -1 -1 0
489 163 2 0.52422 -5.357382340729667 6.21212072023574 -2.100037344339942 1 -1 0
180 60 2 0.52422 -2.9918827303264344 8.48016005713348 -1.4391620251792094 0 0 1
163 55 1 -1.04844 -0.29002073672642226 6.81521013430635 -1.7835475849042446 0 -1 0
173 58 2 0.52422 -6.813772423305743 3.146723936372611 -3.1720554271028307 0 -1 1
5 2 2 0.52422 -3.8847373814335864 3.1397733822598664 -3.4943424964938306 0 0 -1
376 126 1 -1.04844 -9.47352342206891 0.4497925374666796 -3.347596296953717 0 0 0
172 58 1 -1.04844 -6.860140745016571 2.939046294050044 -4.105064504459486 0 -1 1
415 139 1 -1.04844 -3.164693795719489 0.5982409262313251 -0.8646468575575508 1 0 1
405 135 2 0.52422 -9.48091377337023 3.2984774173674456 -0.2701463290841559 0 0 0
178 60 1 -1.04844 -2.7619579572714352 8.140968829205631 -2.3039577469861197 0 0 1
631 211 1 -1.04844 -8.329932412166277 4.987314615501003 -4.997214303608054 0 0 0
37 13 1 -1.04844 -8.139510031507305 9.0698698333853 -3.477242511175338 0 0 0
304 102 1 -1.04844 -6.118702610372481 1.145684950762318 -1.3755674044612434 1 0 0
417 139 2 0.52422 -2.628763147375235 1.3350343946619425 -1.1573922828522036 1 0 1
456 152 2 0.52422 -4.753725874514974 9.485088424390083 -1.9722067319970442 -1 0 0
104 35 2 0.52422 -0.33221654570816206 1.1213831539107044 -2.2218726729210516 0 0 0
272 91 2 0.52422 -7.678604105098945 3.5422535379479836 -0.6489178920414336 0 1 -1
103 35 1 -1.04844 -0.8717453551312992 1.910166605583047 -2.1717043464787054 0 0 0
6 2 2 0.52422 -4.7472673253149615 3.9743972748024827 -2.5722722756517467 0 0 -1
885 295 2 0.52422 -3.57478673496375 0.6279347441810046 -3.908832093360343 1 1 0
357 119 2 0.52422 -9.386864704069467 7.180901006215501 -3.029543062020399 1 0 0
4 2 1 -1.04844 -4.25707233807714 3.1535181267688284 -2.6128879783050047 0 0 -1
285 95 2 0.52422 -9.895166965984236 9.532311412065672 -2.485837182514702 0 1 -1
271 91 1 -1.04844 -6.926804127578137 3.629135278627274 -1.2346095324934492 0 1 -1
355 119 1 -1.04844 -9.657522949329044 6.288067199082997 -2.816529802807138 1 0 0
828 276 2 0.52422 -1.6882765179800412 3.3716132622501824 -4.380097514057274 0 -1 0
165 55 2 0.52422 -0.4480374813101964 6.82050500032115 -0.8397333428816456 0 -1 0
105 35 2 0.52422 -1.1565690856432838 2.0637114582928078 -3.072305966068301 0 0 0
306 102 2 0.52422 -5.304658600476393 1.4489593591361523 -1.776993520804666 1 0 0
839 280 2 0.52422 -10.143215915803797 1.7983556600046189 -2.2302420722192515 1 0 0
642 214 2 0.52422 -0.6661562892333102 5.575236980026133 -3.2609795413430778 1 0 0
39 13 2 0.52422 -7.190336093026303 9.14205484562528 -3.3790377832411567 0 0 0
416 139 2 0.52422 -3.5122622881602323 0.2188460249840336 -1.6715178589646111 1 0 1
377 126 2 0.52422 -8.560667881281391 0.20044752747444328 -3.490090666709584 0 0 0
378 126 2 0.52422 -9.919853945639899 0.19853999015119683 -4.155958410182489 0 0 0
13 5 1 -1.04844 -7.667743043523377 10.14783317368922 -0.012443546740668054 1 -1 -1
697 233 1 -1.04844 -6.498544531073717 0.054288852304416935 -4.613236869111798 1 1 -1
15 5 2 0.52422 -7.235576369700675 10.354734845133487 -0.8408184593951873 1 -1 -1
725 242 2 0.52422 -4.312215416724043 9.866035116444168 0.6783624205094831 1 1 0
158 53 2 0.52422 -8.669941258594195 6.905348487909736 0.5872560363073998 0 0 0
159 53 2 0.52422 -10.002076160557401 7.403520786711264 0.06954559371741098 0 0 0
890 297 2 0.52422 -3.172147534598505 2.990766616326585 0.5536462240635842 1 0 0
896 299 2 0.52422 -9.414703406233029 8.267481549994526 4.629666407264784 2 0 0
379 127 1 -1.04844 -3.5337100024716017 6.093934002216388 0.8193033077419862 0 0 -1
407 136 2 0.52422 -4.794204880546905 1.6166694483242239 2.3801814088899036 0 1 0
136 46 1 -1.04844 -6.1615074119526065 8.395488818828897 3.7673575496449505 -1 0 -1
466 156 1 -1.04844 -10.075323952602593 1.3319409618331601 4.049220670743539 1 0 0
98 33 2 0.52422 -5.658775066789139 9.737998119884894 2.6140279268687596 0 -1 0
398 133 2 0.52422 -6.269654051886923 5.9660126017884085 2.4213778016713974 0 -1 0
508 170 1 -1.04844 -0.9634259436523944 6.694679456430782 1.2923256523538544 0 0 -1
381 127 2 0.52422 -3.3969769305476136 5.244919479004068 1.2391398297590452 0 0 -1
560 187 2 0.52422 -8.66998556233406 4.974181368830301 4.776628748226839 0 0 -1
114 38 2 0.52422 -4.425230042083411 7.602891511671627 3.566528807691517 0 0 0
138 46 2 0.52422 -6.892160231844231 7.792266911690808 3.6330017620703234 -1 0 -1
657 219 2 0.52422 -6.605666698314094 4.815447343530472 4.991106982021643 0 0 0
726 242 2 0.52422 -3.7193134154346854 8.474797410491187 0.6175733015816309 1 1 0
591 197 2 0.52422 -7.470051475788954 3.038451522084001 1.4059330921343314 1 0 -1
399 133 2 0.52422 -6.333620270840852 4.535654458520533 2.9120454792654176 0 -1 0
111 37 2 0.52422 -0.9013555994285323 2.4808824832030805 2.132348544245957 0 0 0
109 37 1 -1.04844 -1.1174306153532942 2.6995137589490685 1.2260937509810557 0 0 0
729 243 2 0.52422 -2.0415712209382484 0.11881281325699256 2.061616415905588 0 0 0
566 189 2 0.52422 -0.32574076067886715 6.057896206256723 4.463133692373427 1 -1 -1
336 112 2 0.52422 -2.173046765787758 3.918775633780271 2.6487753017419298 0 0 0
590 197 2 0.52422 -5.9689945991329 3.0150530392635737 1.2134312986240996 1 0 -1
334 112 1 -1.04844 -2.5892190650404663 4.703217502381992 3.00547464068463 0 0 0
262 88 1 -1.04844 -7.542066811643135 2.0592853464911087 4.265482681143357 1 0 0
895 299 1 -1.04844 -9.938775988812436 7.879243573643565 3.9293781463217172 2 0 0
403 135 1 -1.04844 -9.055591251435247 3.6227791285368145 0.5234008911541324 0 0 0
397 133 1 -1.04844 -6.339433161624965 5.442011718310274 3.219086303850963 0 -1 0
406 136 1 -1.04844 -5.202594138677735 0.7995700197879643 2.6653999334273557 0 1 0
408 136 2 0.52422 -4.899314305655192 0.6811077141670907 3.5652765050093276 0 1 0