LAMMPS (17 Apr 2024)
  using 1 OpenMP thread(s) per MPI task
# mbx water water box

variable        temp equal 298.0  # simulation temperature
variable        dt  equal  0.5  # in fs
variable        pressure equal 1  #pressure of the system
variable        thermo_freq equal 100
variable        dump_freq equal  100
variable        nsteps equal  200000
variable        print_freq equal   100
variable        seed equal 123456

## for the calculation of the box dimention
#variable     num_water equal 256
#variable     req_density equal 1.00 # g/cc
#
## for cubic box
#variable     box_dim equal (180*${num_water}/6.022)^(0.33) #amstrong

processors * * * map xyz

units real
atom_style full
boundary        p p p

read_data data.system
Reading data file ...
  orthogonal box = (-10.357685 -10.357685 -10.357685) to (10.357685 10.357685 10.357685)
  2 by 4 by 4 MPI processor grid
  reading atoms ...
  901 atoms
  reading velocities ...
  901 velocities
  scanning bonds ...
  2 = max bonds/atom
  scanning angles ...
  1 = max angles/atom
  orthogonal box = (-10.357685 -10.357685 -10.357685) to (10.357685 10.357685 10.357685)
  2 by 4 by 4 MPI processor grid
  reading bonds ...
  600 bonds
  reading angles ...
  300 angles
Finding 1-2 1-3 1-4 neighbors ...
  special bond factors lj:    0        0        0       
  special bond factors coul:  0        0        0       
     2 = max # of 1-2 neighbors
     1 = max # of 1-3 neighbors
     1 = max # of 1-4 neighbors
     2 = max # of special neighbors
  special bonds CPU = 0.001 seconds
  read_data CPU = 0.016 seconds

group water type 2 3
601 atoms in group water
group na type 1
300 atoms in group na

#region box block 0 ${box_dim} 0 ${box_dim} 0 ${box_dim}
#create_box 3 box bond/types 1 angle/types 1 #            extra/bond/per/atom 2 extra/angle/per/atom 1 extra/special/per/atom 2
#
#mass 1 15.9994
#mass 2 1.008
#mass 3 22.99

pair_style  mbx 9.0
pair_coeff * * 0.0 0.0
pair_modify     tail yes

neighbor        2.0 bin
neigh_modify    every 1 delay 10 check yes

#molecule water water.mol
#molecule na na.mol
#olecule cl cl.mol

#create_atoms 0 random 1 ${seed} NULL mol na ${seed} overlap 1.33
#reate_atoms 0 random 1 ${seed} NULL mol cl ${seed} overlap 1.33
#create_atoms 0 random ${num_water} ${seed} NULL mol water ${seed} overlap 1.33

compute         mbx all pair mbx
variable        e1bpip    equal c_mbx[1]
variable        e2bpip    equal c_mbx[2]
variable        e3bpip    equal c_mbx[3]
variable        e4bpip    equal c_mbx[4]
variable        edisp     equal c_mbx[5]
variable        ebuck     equal c_mbx[6]
variable        eele      equal c_mbx[7]
variable        etot      equal c_mbx[8]

fix             MBX all mbx 2 na+ 3 3 1 3 h2o 1 2 3 1 2 2 json mbx.json

timestep        ${dt}
timestep        0.5

thermo_style    custom step time temp etotal pe press vol density lx
thermo          ${thermo_freq}
thermo          100
thermo_modify   flush yes

velocity        all create ${temp} ${seed} rot yes dist gaussian
velocity        all create 298 ${seed} rot yes dist gaussian
velocity        all create 298 123456 rot yes dist gaussian

fix             thermo_print all print ${print_freq} "$(step) $(0.001*time) $(temp) $(etotal) $(ke) $(pe) $(enthalpy) $(density) $(lx) $(ly) $(lz) $(vol) $(pxx) $(pyy) $(pzz) $(press)" file thermo.out screen no title "# step time temp etotal ke pe enthalpy density lx ly lz vol pxx pyy pzz press"
fix             thermo_print all print 100 "$(step) $(0.001*time) $(temp) $(etotal) $(ke) $(pe) $(enthalpy) $(density) $(lx) $(ly) $(lz) $(vol) $(pxx) $(pyy) $(pzz) $(press)" file thermo.out screen no title "# step time temp etotal ke pe enthalpy density lx ly lz vol pxx pyy pzz press"

# Printing desierd properites to a file
fix             mbx_print all print ${print_freq} "$(time) $(c_mbx[1]) $(c_mbx[2]) $(c_mbx[3]) $(c_mbx[4]) $(c_mbx[6]) $(c_mbx[6]) $(c_mbx[7]) $(c_mbx[8])" file mbx_thermo.out screen no title "# time e1bpip e2bpip e3bpip e4bpip edisp ebuck eele etot"
fix             mbx_print all print 100 "$(time) $(c_mbx[1]) $(c_mbx[2]) $(c_mbx[3]) $(c_mbx[4]) $(c_mbx[6]) $(c_mbx[6]) $(c_mbx[7]) $(c_mbx[8])" file mbx_thermo.out screen no title "# time e1bpip e2bpip e3bpip e4bpip edisp ebuck eele etot"

compute         myRDF all rdf 100 1 1 1 3 # 100 bins, pairs atom type
fix             rdfout all ave/time 1 1 100 c_myRDF[*] file rdf.out mode vector ave running # performs time average over all rdfs, averaged every 100 steps, 'running' denotes cumulative average (which allows me to plot the last output rdf)

# Computing MSD
compute WaterMSD water msd com yes average yes
fix             water_msd_print all print ${print_freq} "$(time) $(c_WaterMSD[1]) $(c_WaterMSD[2]) $(c_WaterMSD[3]) $(c_WaterMSD[4])" file water_msd.out screen no title "#$(time) $(c_WaterMSD[1]) $(c_WaterMSD[2]) $(c_WaterMSD[3]) $(c_WaterMSD[4])"
fix             water_msd_print all print 100 "$(time) $(c_WaterMSD[1]) $(c_WaterMSD[2]) $(c_WaterMSD[3]) $(c_WaterMSD[4])" file water_msd.out screen no title "#$(time) $(c_WaterMSD[1]) $(c_WaterMSD[2]) $(c_WaterMSD[3]) $(c_WaterMSD[4])"

compute NaMSD water msd com yes average yes
fix             na_msd_print all print ${print_freq} "$(time) $(c_NaMSD[1]) $(c_NaMSD[2]) $(c_NaMSD[3]) $(c_NaMSD[4])" file na_msd.out screen no title "#$(time) $(c_NaMSD[1]) $(c_NaMSD[2]) $(c_NaMSD[3]) $(c_NaMSD[4])"
fix             na_msd_print all print 100 "$(time) $(c_NaMSD[1]) $(c_NaMSD[2]) $(c_NaMSD[3]) $(c_NaMSD[4])" file na_msd.out screen no title "#$(time) $(c_NaMSD[1]) $(c_NaMSD[2]) $(c_NaMSD[3]) $(c_NaMSD[4])"

# NPT for density equilibriation
fix             mynpt all npt temp ${temp} ${temp} $(100.0*dt) iso ${pressure} ${pressure} $(1000.0*dt) tchain 4
fix             mynpt all npt temp 298 ${temp} $(100.0*dt) iso ${pressure} ${pressure} $(1000.0*dt) tchain 4
fix             mynpt all npt temp 298 298 $(100.0*dt) iso ${pressure} ${pressure} $(1000.0*dt) tchain 4
fix             mynpt all npt temp 298 298 50 iso ${pressure} ${pressure} $(1000.0*dt) tchain 4
fix             mynpt all npt temp 298 298 50 iso 1 ${pressure} $(1000.0*dt) tchain 4
fix             mynpt all npt temp 298 298 50 iso 1 1 $(1000.0*dt) tchain 4
fix             mynpt all npt temp 298 298 50 iso 1 1 500 tchain 4

dump            2 all custom ${dump_freq} traj_npt.lammpstrj id type x y z
dump            2 all custom 100 traj_npt.lammpstrj id type x y z
dump_modify     2 sort id

restart         10 restart.inter.1 restart.inter.2

run            ${nsteps}
run            200000

CITE-CITE-CITE-CITE-CITE-CITE-CITE-CITE-CITE-CITE-CITE-CITE-CITE

Your simulation uses code contributions which should be cited:

- fix mbx command:

@article{10.1063/5.0156036,
 author = {Riera, Marc and Knight, Christopher and Bull-Vulpe, Ethan F. and Zhu, Xuanyu and Agnew, Henry and Smith, Daniel G. A. and Simmonett, Andrew C. and Paesani, Francesco},
 title = "{MBX: A many-body energy and force calculator for data-driven many-body simulations}",
 journal = {The Journal of Chemical Physics},
 volume = {159},
 number = {5},
 pages = {054802},
 year = {2023},
 doi = {10.1063/5.0156036},
}

CITE-CITE-CITE-CITE-CITE-CITE-CITE-CITE-CITE-CITE-CITE-CITE-CITE

Generated 0 of 3 mixed pair_coeff terms from geometric mixing rule
WARNING: Bonds are defined but no bond style is set (../force.cpp:197)
WARNING: Likewise 1-2 special neighbor interactions != 1.0 (../force.cpp:199)
WARNING: Angles are defined but no angle style is set (../force.cpp:202)
WARNING: Likewise 1-3 special neighbor interactions != 1.0 (../force.cpp:204)
Neighbor list info ...
  update: every = 1 steps, delay = 10 steps, check = yes
  max neighbors/atom: 2000, page size: 100000
  master list distance cutoff = 11
  ghost atom cutoff = 11
  binsize = 5.5, bins = 4 4 4
  2 neighbor lists, perpetual/occasional/extra = 1 1 0
  (1) pair mbx, perpetual
      attributes: half, newton on
      pair build: half/bin/newton
      stencil: half/bin/3d
      bin: standard
  (2) compute rdf, occasional, copy from (1)
      attributes: half, newton on
      pair build: copy
      stencil: none
      bin: none
Per MPI rank memory allocation (min/avg/max) = 7.895 | 7.898 | 7.903 Mbytes
   Step          Time           Temp          TotEng         PotEng         Press          Volume        Density           Lx      
         0   0              298           -2235.796      -3035.2492      25929.768      8889.5166      1.0138522      20.715371    
