LAMMPS (17 Apr 2024 - Development - patch_17Apr2024-524-gcfcd2b2068)
  using 1 OpenMP thread(s) per MPI task
Reading data file ...
  orthogonal box = (-0.24053392 -0.24053392 -0.24053392) to (19.367437 19.367437 19.367437)
  2 by 2 by 2 MPI processor grid
  reading atoms ...
  769 atoms
  reading velocities ...
  769 velocities
  scanning bonds ...
  2 = max bonds/atom
  scanning angles ...
  1 = max angles/atom
  orthogonal box = (-0.24053392 -0.24053392 -0.24053392) to (19.367437 19.367437 19.367437)
  2 by 2 by 2 MPI processor grid
  reading bonds ...
  512 bonds
  reading angles ...
  256 angles
Finding 1-2 1-3 1-4 neighbors ...
  special bond factors lj:    0        0        0       
  special bond factors coul:  0        0        0       
     2 = max # of 1-2 neighbors
     1 = max # of 1-3 neighbors
     1 = max # of 1-4 neighbors
     2 = max # of special neighbors
  special bonds CPU = 0.001 seconds
  read_data CPU = 0.009 seconds
769 atoms in group water
0 atoms in group na
[0] json_settings= {
   "Note" : "This is a cofiguration file",
   "MBX" : { 
       "box" : [40.00000,0.0,0.0,0.0,40.0000,0.0,0.0,0.0,40.000000],
       "twobody_cutoff"   : 9.0,
       "threebody_cutoff" : 4.5, 
       "max_n_eval_1b"    : 500,
       "max_n_eval_2b"    : 500,
       "max_n_eval_3b"    : 500,
       "dipole_tolerance" : 1E-16,
       "dipole_max_it"    : 100,
       "dipole_method"     : "cg",
       "alpha_ewald_elec" : 0.60,
       "grid_density_elec" : 2.5,
       "spline_order_elec" : 6,
       "alpha_ewald_disp" : 0.60,
       "grid_density_disp" : 2.5,
       "spline_order_disp" : 6,
       "ttm_pairs" : [],
       "ignore_2b_poly" : [],
       "ignore_3b_poly" : []
   }   
}



CITE-CITE-CITE-CITE-CITE-CITE-CITE-CITE-CITE-CITE-CITE-CITE-CITE

Your simulation uses code contributions which should be cited:
- Type Label Framework: https://doi.org/10.1021/acs.jpcb.3c08419
- fix mbx command:
The log file lists these citations in BibTeX format.

CITE-CITE-CITE-CITE-CITE-CITE-CITE-CITE-CITE-CITE-CITE-CITE-CITE

WARNING: No fixes with time integration, atoms won't move (../verlet.cpp:60)
Generated 0 of 3 mixed pair_coeff terms from geometric mixing rule
WARNING: Bonds are defined but no bond style is set (../force.cpp:197)
WARNING: Likewise 1-2 special neighbor interactions != 1.0 (../force.cpp:199)
WARNING: Angles are defined but no angle style is set (../force.cpp:202)
WARNING: Likewise 1-3 special neighbor interactions != 1.0 (../force.cpp:204)
Neighbor list info ...
  update: every = 1 steps, delay = 10 steps, check = yes
  max neighbors/atom: 2000, page size: 100000
  master list distance cutoff = 11
  ghost atom cutoff = 11
  binsize = 5.5, bins = 4 4 4
  2 neighbor lists, perpetual/occasional/extra = 1 1 0
  (1) pair mbx, perpetual
      attributes: half, newton on
      pair build: half/bin/newton
      stencil: half/bin/3d
      bin: standard
  (2) compute rdf, occasional, copy from (1)
      attributes: half, newton on
      pair build: copy
      stencil: none
      bin: none
WARNING: Inconsistent image flags (../domain.cpp:1051)
Per MPI rank memory allocation (min/avg/max) = 8.196 | 8.205 | 8.215 Mbytes
   Step          Time           Temp          TotEng         PotEng         Press          Volume        Density           Lx          c_mbx[1]       c_mbx[2]       c_mbx[3]       c_mbx[4]       c_mbx[5]       c_mbx[6]       c_mbx[7]       c_mbx[8]   
         0   0              298            1777.7767      1095.5766      60947.759      6997.3565      1.0982544      19.126904      0.14443867     3566.7255      89.564411      0             -1810.0449      0             -750.81273      1095.5766    
WARNING: Inconsistent image flags (../domain.cpp:1051)
       100   50             298           -439.16051     -1121.3606      7179.5067      7729.8175      0.99418615     19.772265      214.66721      1765.4313      52.874082      0             -1337.9127      0             -1816.4205     -1121.3606    
WARNING: Inconsistent image flags (../domain.cpp:1051)
       200   100            298           -500.53037     -1182.7305      2692.1958      8331.707       0.9223653      20.272688      202.36417      1540.2701      45.110434      0             -1198.4982      0             -1771.9769     -1182.7305    
WARNING: Inconsistent image flags (../domain.cpp:1051)
       300   150            298           -607.32371     -1289.5238     -629.04664      8782.6478      0.8750069      20.632023      184.72239      1337.0063      36.806287      0             -1095.9392      0             -1752.1196     -1289.5238    
WARNING: Inconsistent image flags (../domain.cpp:1051)
       400   200            298           -666.25267     -1348.4528     -1046.5253      9065.3499      0.84771989     20.851063      164.58091      1244.9651      39.256014      0             -1043.9978      0             -1753.257      -1348.4528    
WARNING: Inconsistent image flags (../domain.cpp:1051)
       500   250            298           -732.66032     -1414.8604     -1720.5629      9225.4392      0.83300939     20.973087      163.5323       1287.598       41.37194       0             -1047.6524      0             -1859.7102     -1414.8604    
WARNING: Inconsistent image flags (../domain.cpp:1051)
       600   300            298           -793.48014     -1475.6803      228.20192      9318.6331      0.82467862     21.043472      162.32506      1354.2093      32.637428      0             -1067.1652      0             -1957.6868     -1475.6803    
WARNING: Inconsistent image flags (../domain.cpp:1051)
       700   350            298           -851.84657     -1534.0467     -1898.6384      9395.5945      0.81792349     21.101245      155.56244      1331.2296      45.532943      0             -1060.0544      0             -2006.3173     -1534.0467    
WARNING: Inconsistent image flags (../domain.cpp:1051)
       800   400            298           -935.02161     -1617.2217     -1808.6519      9426.5302      0.81523925     21.124379      156.446        1405.3073      45.761598      0             -1083.9447      0             -2140.7918     -1617.2217    
WARNING: Inconsistent image flags (../domain.cpp:1051)
       900   450            298           -997.82731     -1680.0274     -1334.1118      9409.401       0.81672335     21.111576      148.62105      1513.5171      41.406125      0             -1119.8436      0             -2263.7281     -1680.0274    
WARNING: Inconsistent image flags (../domain.cpp:1051)
      1000   500            298           -1080.0416     -1762.2417     -1287.0477      9381.1655      0.81918153     21.090438      157.3664       1543.9624      48.504116      0             -1132.7767      0             -2379.2979     -1762.2417    
WARNING: Inconsistent image flags (../domain.cpp:1051)
      1100   550            298           -1110.4295     -1792.6296     -1493.5611      9321.4771      0.82442701     21.045613      153.28932      1625.2522      55.002683      0             -1168.1779      0             -2457.9959     -1792.6296    
WARNING: Inconsistent image flags (../domain.cpp:1051)
      1200   600            298           -1113.7316     -1795.9317     -39.729794      9260.1142      0.82989014     20.99933       151.08468      1785.7717      58.160736      0             -1224.7481      0             -2566.2008     -1795.9317    
WARNING: Inconsistent image flags (../domain.cpp:1051)
      1300   650            298           -1170.6015     -1852.8016     -1123.0422      9234.3241      0.83220791     20.979817      153.69911      1758.9296      55.200635      0             -1216.8411      0             -2603.7898     -1852.8016    
WARNING: Inconsistent image flags (../domain.cpp:1051)
      1400   700            298           -1205.0494     -1887.2496     -2203.8467      9182.6032      0.8368953      20.940575      141.81701      1648.385       56.627933      0             -1187.7063      0             -2546.3732     -1887.2496    
WARNING: Inconsistent image flags (../domain.cpp:1051)
      1500   750            298           -1254.9529     -1937.153      -1327.8755      9070.6079      0.8472285      20.855093      142.85907      1749.6319      48.081812      0             -1232.4363      0             -2645.2894     -1937.153     
WARNING: Inconsistent image flags (../domain.cpp:1051)
      1600   800            298           -1265.4422     -1947.6423      404.02678      8950.811       0.85856773     20.762874      140.46182      1982.766       54.140587      0             -1319.6575      0             -2805.3532     -1947.6423    
WARNING: Inconsistent image flags (../domain.cpp:1051)
      1700   850            298           -1301.9873     -1984.1874     -279.19812      8904.238       0.8630584      20.7268        149.53723      1924.152       55.497271      0             -1304.4563      0             -2808.9176     -1984.1874    
WARNING: Inconsistent image flags (../domain.cpp:1051)
      1800   900            298           -1299.9674     -1982.1675      813.59146      8885.3537      0.86489269     20.712137      149.37372      1944.3555      52.449241      0             -1309.7289      0             -2818.6171     -1982.1675    
WARNING: Inconsistent image flags (../domain.cpp:1051)
      1900   950            298           -1375.3193     -2057.5194     -875.92912      8859.8737      0.86738002     20.69232       155.95491      1992.8512      46.51728       0             -1324.7966      0             -2928.0461     -2057.5194    
WARNING: Inconsistent image flags (../domain.cpp:1051)
      2000   1000           298           -1386.279      -2068.4791     -1228.9364      8810.1349      0.87227693     20.653525      144.14944      1921.6634      47.36904       0             -1309.2283      0             -2872.4328     -2068.4791    
WARNING: Inconsistent image flags (../domain.cpp:1051)
      2100   1050           298           -1406.4936     -2088.6937     -1803.0538      8725.731       0.88071446     20.587358      151.34045      2031.4244      61.483097      0             -1353.0903      0             -2979.8513     -2088.6937    
WARNING: Inconsistent image flags (../domain.cpp:1051)
      2200   1100           298           -1410.1452     -2092.3453      1702.2429      8656.3715      0.88777122     20.532664      134.49202      2191.8049      54.950292      0             -1406.194       0             -3067.3986     -2092.3453    
WARNING: Inconsistent image flags (../domain.cpp:1051)
      2300   1150           298           -1433.1274     -2115.3275     -534.96752      8635.0603      0.88996222     20.5158        134.38406      2083.6516      57.900497      0             -1371.9392      0             -3019.3245     -2115.3275    
WARNING: Inconsistent image flags (../domain.cpp:1051)
      2400   1200           298           -1455.427      -2137.6272     -992.275        8610.0983      0.89254236     20.496012      135.2286       2020.281       60.411043      0             -1358.041       0             -2995.5068     -2137.6272    
WARNING: Inconsistent image flags (../domain.cpp:1051)
      2500   1250           298           -1461.6515     -2143.8516     -1507.3679      8544.1288      0.89943371     20.443532      145.98836      2012.4436      71.54649       0             -1357.9318      0             -3015.8983     -2143.8516    
WARNING: Inconsistent image flags (../domain.cpp:1051)
      2600   1300           298           -1448.1687     -2130.3688      927.98476      8436.2029      0.91094033     20.357089      131.77792      2038.8625      60.955616      0             -1375.6668      0             -2986.298      -2130.3688    
WARNING: Inconsistent image flags (../domain.cpp:1051)
      2700   1350           298           -1471.8735     -2154.0736     -100.76953      8323.5223      0.92327229     20.266047      148.98451      2206.5965      70.751907      0             -1443.296       0             -3137.1105     -2154.0736    
WARNING: Inconsistent image flags (../domain.cpp:1051)
      2800   1400           298           -1457.5345     -2139.7346      1179.3996      8272.069       0.92901516     20.224201      148.33413      2231.4422      61.822895      0             -1454.9716      0             -3126.3622     -2139.7346    
WARNING: Inconsistent image flags (../domain.cpp:1051)
      2900   1450           298           -1444.1052     -2126.3053      1050.7977      8287.3365      0.92730367     20.236636      157.85643      2157.894       62.420441      0             -1427.4843      0             -3076.9919     -2126.3053    
WARNING: Inconsistent image flags (../domain.cpp:1051)
      3000   1500           298           -1423.5171     -2105.7172     -952.54397      8340.4694      0.92139628     20.279792      163.14801      2116.3996      57.921907      0             -1408.2447      0             -3034.942      -2105.7172    
WARNING: Inconsistent image flags (../domain.cpp:1051)
      3100   1550           298           -1471.6612     -2153.8613     -69.540247      8388.4615      0.91612478     20.318615      158.49704      2052.7425      60.774035      0             -1382.3166      0             -3043.5583     -2153.8613    
WARNING: Inconsistent image flags (../domain.cpp:1051)
      3200   1600           298           -1472.0243     -2154.2244     -1776.772       8377.5169      0.91732163     20.309775      158.46547      2077.5339      58.066936      0             -1392.8512      0             -3055.4394     -2154.2244    
WARNING: Inconsistent image flags (../domain.cpp:1051)
      3300   1650           298           -1479.7752     -2161.9753      912.09586      8311.9516      0.92455754     20.256652      163.04183      2101.7736      57.571159      0             -1406.0532      0             -3078.3087     -2161.9753    
WARNING: Inconsistent image flags (../domain.cpp:1051)
      3400   1700           298           -1493.5369     -2175.7371     -3564.0226      8230.9848      0.93365225     20.190664      170.19878      2143.3003      59.00989       0             -1430.3006      0             -3117.9454     -2175.7371    
WARNING: Inconsistent image flags (../domain.cpp:1051)
      3500   1750           298           -1502.0849     -2184.2851      2684.8613      8165.5943      0.94112899     20.137054      165.1119       2364.747       64.495506      0             -1505.2072      0             -3273.4322     -2184.2851    
WARNING: Inconsistent image flags (../domain.cpp:1051)
      3600   1800           298           -1529.0598     -2211.2599      44.88198       8177.109       0.93980372     20.146515      166.30865      2271.888       75.96009       0             -1483.7937      0             -3241.623      -2211.2599    
WARNING: Inconsistent image flags (../domain.cpp:1051)
      3700   1850           298           -1520.2985     -2202.4986     -1009.6501      8207.315       0.9363449      20.171291      156.47301      2116.6696      64.537689      0             -1425.6307      0             -3114.5482     -2202.4986    
WARNING: Inconsistent image flags (../domain.cpp:1051)
      3800   1900           298           -1532.3501     -2214.5502      147.93094      8178.3963      0.93965579     20.147572      152.86622      2086.5935      65.994289      0             -1420.0137      0             -3099.9905     -2214.5502    
WARNING: Inconsistent image flags (../domain.cpp:1051)
      3900   1950           298           -1515.7094     -2197.9095     -42.539264      8119.7151      0.9464467      20.099269      162.21904      2257.474       69.484128      0             -1479.5278      0             -3207.5589     -2197.9095    
WARNING: Inconsistent image flags (../domain.cpp:1051)
      4000   2000           298           -1531.3776     -2213.5777     -615.52007      8097.6847      0.94902158     20.081075      177.22224      2252.6045      69.465205      0             -1477.9045      0             -3234.9652     -2213.5777    
WARNING: Inconsistent image flags (../domain.cpp:1051)
      4100   2050           298           -1556.6578     -2238.8579      326.58168      8082.7824      0.9507713      20.068749      157.41625      2253.301       65.062583      0             -1479.5613      0             -3235.0764     -2238.8579    
WARNING: Inconsistent image flags (../domain.cpp:1051)
      4200   2100           298           -1552.7807     -2234.9808      1054.8787      8063.3536      0.95306219     20.052656      172.24937      2335.5881      77.404725      0             -1507.0206      0             -3313.2024     -2234.9808    
WARNING: Inconsistent image flags (../domain.cpp:1051)
      4300   2150           298           -1529.4288     -2211.6289     -196.41702      8068.6288      0.95243909     20.057028      170.52853      2261.3731      69.229967      0             -1486.6563      0             -3226.1042     -2211.6289    
WARNING: Inconsistent image flags (../domain.cpp:1051)
      4400   2200           298           -1560.1179     -2242.318       491.55965      8080.7525      0.95101013     20.067069      161.506        2254.1917      69.157929      0             -1475.8731      0             -3251.3006     -2242.318     
WARNING: Inconsistent image flags (../domain.cpp:1051)
      4500   2250           298           -1555.9632     -2238.1634      604.82241      8077.5573      0.95138631     20.064423      158.28318      2291.8165      57.272901      0             -1493.5561      0             -3251.9799     -2238.1634    
WARNING: Inconsistent image flags (../domain.cpp:1051)
      4600   2300           298           -1528.4237     -2210.6238     -100.76052      8079.3296      0.95117762     20.065891      171.85206      2302.635       59.103563      0             -1494.5803      0             -3249.6342     -2210.6238    
WARNING: Inconsistent image flags (../domain.cpp:1051)
      4700   2350           298           -1505.4092     -2187.6093      281.54992      8102.7565      0.94842754     20.085266      172.84114      2253.0239      72.540425      0             -1476.4561      0             -3209.5586     -2187.6093    
WARNING: Inconsistent image flags (../domain.cpp:1051)
      4800   2400           298           -1474.0891     -2156.2892      331.13608      8148.3721      0.94311813     20.122887      168.42172      2198.7285      67.277169      0             -1453.0051      0             -3137.7115     -2156.2892    
WARNING: Inconsistent image flags (../domain.cpp:1051)
      4900   2450           298           -1484.7948     -2166.9949     -2072.1822      8193.4252      0.93793222     20.159906      170.86406      2103.8577      65.926126      0             -1417.2051      0             -3090.4377     -2166.9949    
WARNING: Inconsistent image flags (../domain.cpp:1051)
      5000   2500           298           -1517.6484     -2199.8485     -397.00551      8191.2112      0.93818573     20.15809       154.93794      2076.1228      53.638302      0             -1405.4503      0             -3079.0973     -2199.8485    
WARNING: Inconsistent image flags (../domain.cpp:1051)
      5100   2550           298           -1511.744      -2193.9441     -1140.4339      8118.5648      0.94658079     20.09832       176.72652      2101.6079      56.64642       0             -1425.6603      0             -3103.2646     -2193.9441    
WARNING: Inconsistent image flags (../domain.cpp:1051)
      5200   2600           298           -1518.9378     -2201.1379      145.58614      7997.1081      0.96095706     19.99759       172.70125      2305.6106      67.86257       0             -1505.4817      0             -3241.8306     -2201.1379    
WARNING: Inconsistent image flags (../domain.cpp:1051)
      5300   2650           298           -1536.9804     -2219.1805      356.65         7909.8114      0.97156268     19.924559      192.56007      2375.0397      56.922072      0             -1537.6139      0             -3306.0884     -2219.1805    
WARNING: Inconsistent image flags (../domain.cpp:1051)
      5400   2700           298           -1585.2189     -2267.419       271.80871      7885.1276      0.97460408     19.903811      180.26743      2358.3784      75.882082      0             -1533.1183      0             -3348.8285     -2267.419     
WARNING: Inconsistent image flags (../domain.cpp:1051)
      5500   2750           298           -1560.2882     -2242.4883     -208.55535      7898.3001      0.97297867     19.914888      177.82218      2369.4385      69.373723      0             -1538.3575      0             -3320.7652     -2242.4883    
WARNING: Inconsistent image flags (../domain.cpp:1051)
      5600   2800           298           -1567.1609     -2249.361      -800.19848      7936.6685      0.96827497     19.947084      174.23234      2251.4037      71.443033      0             -1492.4813      0             -3253.9588     -2249.361     
WARNING: Inconsistent image flags (../domain.cpp:1051)
      5700   2850           298           -1580.6182     -2262.8183     -456.71564      7949.6777      0.96669044     19.957977      169.28174      2221.4827      72.842761      0             -1484.1366      0             -3242.2889     -2262.8183    
WARNING: Inconsistent image flags (../domain.cpp:1051)
      5800   2900           298           -1578.956      -2261.1561     -328.60794      7940.1183      0.96785429     19.949974      166.50604      2339.2835      69.470088      0             -1521.3357      0             -3315.08       -2261.1561    
WARNING: Inconsistent image flags (../domain.cpp:1051)
      5900   2950           298           -1569.7999     -2252           886.89571      7938.998       0.96799086     19.949035      167.22118      2297.1587      76.129082      0             -1506.0921      0             -3286.4169     -2252         
WARNING: Inconsistent image flags (../domain.cpp:1051)
      6000   3000           298           -1574.6214     -2256.8215     -375.33196      7938.456       0.96805695     19.948581      162.26349      2264.4283      63.392346      0             -1496.7006      0             -3250.205      -2256.8215    
WARNING: Inconsistent image flags (../domain.cpp:1051)
      6100   3050           298           -1565.2452     -2247.4453     -549.26918      7931.2095      0.96894143     19.942509      194.51712      2379.8207      61.261366      0             -1534.7049      0             -3348.3396     -2247.4453    
WARNING: Inconsistent image flags (../domain.cpp:1051)
      6200   3100           298           -1551.176      -2233.3762      284.53953      7954.9589      0.96604867     19.962395      185.08096      2344.9186      69.077659      0             -1521.9465      0             -3310.5069     -2233.3762    
WARNING: Inconsistent image flags (../domain.cpp:1051)
      6300   3150           298           -1569.4858     -2251.686      -1477.4271      7988.4396      0.96199983     19.990362      183.07542      2209.3192      75.312034      0             -1473.1425      0             -3246.2501     -2251.686     
WARNING: Inconsistent image flags (../domain.cpp:1051)
      6400   3200           298           -1557.0146     -2239.2147      186.64535      7968.5717      0.96439836     19.973775      179.77711      2312.8936      65.627034      0             -1512.1722      0             -3285.3402     -2239.2147    
WARNING: Inconsistent image flags (../domain.cpp:1051)
      6500   3250           298           -1560.1129     -2242.313      -1879.9849      7913.3327      0.97113035     19.927515      199.29172      2235.9163      72.595204      0             -1495.5245      0             -3254.5917     -2242.313     
WARNING: Inconsistent image flags (../domain.cpp:1051)
      6600   3300           298           -1519.2602     -2201.4604      618.06086      7825.9762      0.98197047     19.853916      203.80113      2278.4512      69.318652      0             -1509.2894      0             -3243.7419     -2201.4604    
WARNING: Inconsistent image flags (../domain.cpp:1051)
      6700   3350           298           -1552.8324     -2235.0325     -1014.7468      7752.0488      0.99133502     19.791202      204.80917      2284.6494      59.598832      0             -1527.8255      0             -3256.2645     -2235.0325    
WARNING: Inconsistent image flags (../domain.cpp:1051)
      6800   3400           298           -1539.0682     -2221.2683      3557.5849      7703.0881      0.99763593     19.749448      191.33533      2380.4507      68.158513      0             -1559.8937      0             -3301.3192     -2221.2683    
WARNING: Inconsistent image flags (../domain.cpp:1051)
      6900   3450           298           -1569.5052     -2251.7053     -325.6663       7706.638       0.99717639     19.752481      205.03995      2284.527       80.919259      0             -1529.2726      0             -3292.9189     -2251.7053    
WARNING: Inconsistent image flags (../domain.cpp:1051)
      7000   3500           298           -1561.2381     -2243.4382     -301.8308       7734.3184      0.99360759     19.776102      204.87137      2328.9105      60.433177      0             -1543.0279      0             -3294.6254     -2243.4382    
WARNING: Inconsistent image flags (../domain.cpp:1051)
      7100   3550           298           -1522.9162     -2205.1163     -1173.2309      7755.2651      0.99092389     19.793938      192.00114      2213.1249      74.990592      0             -1502.7195      0             -3182.5135     -2205.1163    
WARNING: Inconsistent image flags (../domain.cpp:1051)
      7200   3600           298           -1527.4101     -2209.6102      300.12346      7751.4528      0.99141125     19.790695      208.3653       2334.7834      67.694892      0             -1545.3626      0             -3275.0912     -2209.6102    
WARNING: Inconsistent image flags (../domain.cpp:1051)
      7300   3650           298           -1548.7039     -2230.904       586.11064      7773.0286      0.98865936     19.80904       197.48963      2383.7654      66.980772      0             -1560.3511      0             -3318.7886     -2230.904     
WARNING: Inconsistent image flags (../domain.cpp:1051)
      7400   3700           298           -1546.8152     -2229.0154      997.94225      7827.0711      0.9818331      19.854842      199.44666      2310.4223      69.855943      0             -1529.322       0             -3279.4182     -2229.0154    
WARNING: Inconsistent image flags (../domain.cpp:1051)
      7500   3750           298           -1528.5926     -2210.7927     -572.54832      7886.0014      0.97449609     19.904546      174.85808      2292.0952      75.747665      0             -1513.3989      0             -3240.0948     -2210.7927    
WARNING: Inconsistent image flags (../domain.cpp:1051)
      7600   3800           298           -1541.3757     -2223.5758      385.9487       7944.9889      0.96726095     19.954052      191.32894      2205.075       63.86215       0             -1476.3639      0             -3207.478      -2223.5758    
WARNING: Inconsistent image flags (../domain.cpp:1051)
      7700   3850           298           -1521.9142     -2204.1143     -713.38958      7981.6586      0.96281711     19.984704      205.5956       2264.8362      55.897475      0             -1495.6861      0             -3234.7574     -2204.1143    
WARNING: Inconsistent image flags (../domain.cpp:1051)
      7800   3900           298           -1525.3653     -2207.5654      770.92699      8009.0265      0.95952703     20.007519      186.08701      2233.0545      64.581281      0             -1482.7939      0             -3208.4943     -2207.5654    
WARNING: Inconsistent image flags (../domain.cpp:1051)
      7900   3950           298           -1527.7031     -2209.9033     -1433.2865      8009.783       0.95943641     20.008149      211.30499      2209.6874      66.258421      0             -1476.3508      0             -3220.8032     -2209.9033    
WARNING: Inconsistent image flags (../domain.cpp:1051)
      8000   4000           298           -1548.5705     -2230.7706      372.4358       7987.8894      0.96206608     19.989903      205.54653      2327.2061      62.695187      0             -1511.6493      0             -3314.5691     -2230.7706    
WARNING: Inconsistent image flags (../domain.cpp:1051)
      8100   4050           298           -1576.555      -2258.7551      27.832491      7988.5313      0.96198879     19.990438      195.00676      2331.162       51.897776      0             -1512.678       0             -3324.1436     -2258.7551    
WARNING: Inconsistent image flags (../domain.cpp:1051)
      8200   4100           298           -1564.1626     -2246.3627     -743.81828      7992.0495      0.9615653      19.993372      211.87879      2339.3307      60.882206      0             -1521.8876      0             -3336.5668     -2246.3627    
WARNING: Inconsistent image flags (../domain.cpp:1051)
      8300   4150           298           -1557.4816     -2239.6817      3679.1653      7989.6672      0.96185201     19.991386      195.13486      2344.8484      56.039598      0             -1521.3092      0             -3314.3954     -2239.6817    
WARNING: Inconsistent image flags (../domain.cpp:1051)
      8400   4200           298           -1548.3723     -2230.5724     -1087.0053      7998.653       0.96077145     19.998877      214.13092      2395.4442      62.345555      0             -1535.914       0             -3366.5791     -2230.5724    
WARNING: Inconsistent image flags (../domain.cpp:1051)
      8500   4250           298           -1542.1528     -2224.3529      1728.0563      8016.6581      0.9586136      20.013872      194.12755      2264.137       64.501788      0             -1492.9472      0             -3254.172      -2224.3529    
WARNING: Inconsistent image flags (../domain.cpp:1051)
      8600   4300           298           -1559.248      -2241.4482     -2069.6637      8014.139       0.95891492     20.011776      203.87133      2234.3453      57.193309      0             -1482.304       0             -3254.5541     -2241.4482    
WARNING: Inconsistent image flags (../domain.cpp:1051)
      8700   4350           298           -1550.2429     -2232.443       1602.4754      7991.9533      0.96157687     19.993292      195.64229      2417.5631      59.02583       0             -1545.7787      0             -3358.8955     -2232.443     
WARNING: Inconsistent image flags (../domain.cpp:1051)
      8800   4400           298           -1566.8208     -2249.0209     -204.93496      8002.2045      0.96034505     20.001837      196.61615      2381.651       67.24392       0             -1534.8647      0             -3359.6674     -2249.0209    
WARNING: Inconsistent image flags (../domain.cpp:1051)
      8900   4450           298           -1554.6924     -2236.8926      570.89014      8032.1262      0.95676752     20.026736      206.31179      2266.5085      73.346251      0             -1489.4219      0             -3293.6371     -2236.8926    
WARNING: Inconsistent image flags (../domain.cpp:1051)
      9000   4500           298           -1529.5983     -2211.7984      999.97614      8046.0664      0.95510988     20.038315      198.90528      2246.5623      68.721098      0             -1477.7835      0             -3248.2035     -2211.7984    
WARNING: Inconsistent image flags (../domain.cpp:1051)
      9100   4550           298           -1557.2297     -2239.4298     -2947.1042      8046.3676      0.95507412     20.038565      212.83324      2218.4         55.671576      0             -1474.453       0             -3251.8816     -2239.4298    
WARNING: Inconsistent image flags (../domain.cpp:1051)
      9200   4600           298           -1547.5126     -2229.7127      2035.281       7985.4849      0.96235577     19.987897      181.67511      2282.5457      71.438744      0             -1501.9592      0             -3263.413      -2229.7127    
WARNING: Inconsistent image flags (../domain.cpp:1051)
      9300   4650           298           -1568.3174     -2250.5175     -669.40082      7932.934       0.9687308      19.943955      223.05776      2485.813       70.299103      0             -1577.685       0             -3452.0025     -2250.5175    
WARNING: Inconsistent image flags (../domain.cpp:1051)
      9400   4700           298           -1566.5108     -2248.7109      1701.1652      7932.3244      0.96880525     19.943444      206.41765      2472.3013      71.946066      0             -1573.8993      0             -3425.4766     -2248.7109    
WARNING: Too many warnings: 101 vs 100. All future warnings will be suppressed (../thermo.cpp:478)
      9500   4750           298           -1584.5067     -2266.7068     -178.5176       7966.5611      0.96464175     19.972095      201.62719      2438.1079      77.116132      0             -1557.7917      0             -3425.7664     -2266.7068    
      9600   4800           298           -1586.9689     -2269.169       1267.1716      8015.3655      0.95876819     20.012796      202.19392      2371.6126      65.020319      0             -1532.0959      0             -3375.8998     -2269.169     
      9700   4850           298           -1587.8914     -2270.0915      12.225112      8054.5958      0.95409846     20.045393      223.86609      2443.644       60.225291      0             -1547.8063      0             -3450.0206     -2270.0915    
      9800   4900           298           -1586.886      -2269.0861      367.93699      8116.6332      0.94680605     20.096726      235.736        2539.7876      72.615188      0             -1574.3467      0             -3542.8782     -2269.0861    
      9900   4950           298           -1602.9757     -2285.1758     -655.66169      8220.5101      0.93484193     20.182095      213.40637      2379.8629      67.732103      0             -1507.4135      0             -3438.7636     -2285.1758    
     10000   5000           298           -1584.3342     -2266.5344     -1666.0154      8286.8182      0.92736165     20.236214      215.74024      2341.3225      65.452045      0             -1490.2022      0             -3398.847      -2266.5344    
     10100   5050           298           -1562.34       -2244.5401     -1424.9983      8279.8197      0.92814551     20.230516      222.43024      2358.534       61.981578      0             -1495.7392      0             -3391.7468     -2244.5401    
     10200   5100           298           -1560.7899     -2242.99       -1841.2737      8229.119       0.93386394     20.189138      247.08869      2392.9764      61.599518      0             -1511.614       0             -3433.0406     -2242.99      
     10300   5150           298           -1565.8801     -2248.0802      1303.0236      8158.744       0.94191918     20.131421      218.39459      2366.478       55.401046      0             -1503.1032      0             -3385.2507     -2248.0802    
     10400   5200           298           -1590.2584     -2272.4585     -93.583209      8069.7329      0.95230878     20.057943      225.10138      2452.894       63.957823      0             -1545.6535      0             -3468.7582     -2272.4585    
     10500   5250           298           -1606.4109     -2288.611      -1168.9787      7981.145       0.96287907     19.984275      225.00203      2449.1564      61.203519      0             -1559.6663      0             -3464.3067     -2288.611     
     10600   5300           298           -1597.2942     -2279.4943      759.30958      7909.8038      0.9715636      19.924552      220.84829      2513.3585      62.091179      0             -1586.9969      0             -3488.7954     -2279.4943    
     10700   5350           298           -1575.9372     -2258.1373      2226.9623      7879.8021      0.97526276     19.899329      206.24666      2430.5418      75.190598      0             -1563.6134      0             -3406.503      -2258.1373    
     10800   5400           298           -1599.3489     -2281.549      -1833.694       7887.0008      0.9743726      19.905387      242.58636      2417.0741      72.446202      0             -1556.002       0             -3457.6538     -2281.549     
     10900   5450           298           -1561.3823     -2243.5824      1293.5819      7907.9239      0.97179457     19.922974      227.65801      2419.2058      73.583702      0             -1557.1281      0             -3406.9018     -2243.5824    
     11000   5500           298           -1588.7348     -2270.9349     -1512.0088      7942.2984      0.96758861     19.951799      239.50867      2410.6796      65.771558      0             -1545.8017      0             -3441.0932     -2270.9349    
     11100   5550           298           -1590.7146     -2272.9148      1095.5119      7977.1254      0.96336425     19.98092       225.35907      2438.2196      67.361859      0             -1556.9988      0             -3446.8565     -2272.9148    
     11200   5600           298           -1616.4624     -2298.6625     -977.26356      8014.8558      0.95882916     20.012372      215.4079       2419.8966      65.703052      0             -1543.1674      0             -3456.5027     -2298.6625    
     11300   5650           298           -1583.8589     -2266.059      -3006.4405      8039.1354      0.95593333     20.03256       234.45877      2324.7699      67.825524      0             -1511.9465      0             -3381.1667     -2266.059     
     11400   5700           298           -1539.0027     -2221.2028      3065.8346      8048.7072      0.9547965      20.040507      218.10753      2449.5363      73.410071      0             -1545.3585      0             -3416.8982     -2221.2028    
     11500   5750           298           -1566.7755     -2248.9756      203.74799      8082.4228      0.95081359     20.068451      247.40619      2390.6334      63.827279      0             -1527.3083      0             -3423.5342     -2248.9756    
     11600   5800           298           -1593.8943     -2276.0944     -503.76473      8114.7605      0.94702456     20.09518       226.83366      2370.6198      65.73356       0             -1517.857       0             -3421.4245     -2276.0944    
     11700   5850           298           -1583.5842     -2265.7843      410.03256      8114.1876      0.94709142     20.094707      217.99534      2310.2222      78.011638      0             -1491.5325      0             -3380.4809     -2265.7843    
     11800   5900           298           -1593.8251     -2276.0252      219.97408      8074.0733      0.95179685     20.061538      226.11065      2402.6131      72.335859      0             -1528.0119      0             -3449.0729     -2276.0252    
     11900   5950           298           -1641.0132     -2323.2133      684.15336      8042.2653      0.9555613      20.035159      217.71877      2484.3663      67.204589      0             -1561.6822      0             -3530.8208     -2323.2133    
     12000   6000           298           -1646.8351     -2329.0352      847.78644      8043.9492      0.95536126     20.036557      222.97099      2531.6283      65.895308      0             -1580.0231      0             -3569.5067     -2329.0352    
     12100   6050           298           -1644.0038     -2326.2039     -1060.1764      8060.4081      0.95341047     20.050214      209.89469      2527.5518      61.771745      0             -1578.4971      0             -3546.9251     -2326.2039    
     12200   6100           298           -1633.0212     -2315.2213      1276.4437      8094.049       0.94944786     20.078069      211.95696      2419.6948      63.606006      0             -1536.6642      0             -3473.8149     -2315.2213    
     12300   6150           298           -1586.9996     -2269.1997     -1865.2978      8109.6456      0.94762187     20.090957      231.84657      2373.9331      61.386283      0             -1526.8131      0             -3409.5526     -2269.1997    
     12400   6200           298           -1597.3616     -2279.5617     -1101.126       8089.8898      0.94993599     20.074629      226.32334      2381.9095      72.49644       0             -1522.5722      0             -3437.7187     -2279.5617    
     12500   6250           298           -1592.3948     -2274.5949     -602.84173      8047.244       0.95497011     20.039293      215.38175      2356.3988      72.315897      0             -1526.0108      0             -3392.6806     -2274.5949    
     12600   6300           298           -1593.3467     -2275.5468      128.55153      7985.9921      0.96229465     19.98832       220.45463      2360.8808      71.440067      0             -1531.2974      0             -3397.0249     -2275.5468    
     12700   6350           298           -1674.6324     -2356.8326     -1853.7863      7900.101       0.97275686     19.916402      212.09241      2415.2714      64.105822      0             -1563.6998      0             -3484.6024     -2356.8326    
     12800   6400           298           -1676.5506     -2358.7507     -614.0767       7778.7354      0.98793404     19.813886      223.82479      2476.0207      60.355703      0             -1593.9768      0             -3524.9752     -2358.7507    
     12900   6450           298           -1653.5392     -2335.7393     -1107.4178      7647.0545      1.0049461      19.701444      237.77439      2606.9724      66.052623      0             -1646.8896      0             -3599.6492     -2335.7393    
     13000   6500           298           -1639.297      -2321.4971      1187.3949      7580.947       1.0137094      19.644508      230.00558      2574.252       50.283747      0             -1638.9003      0             -3537.1381     -2321.4971    
     13100   6550           298           -1624.9341     -2307.1343      1763.5518      7582.3677      1.0135195      19.645735      211.70626      2508.7433      59.000097      0             -1615.6084      0             -3470.9755     -2307.1343    
     13200   6600           298           -1614.1064     -2296.3065      852.81834      7626.9469      1.0075955      19.684161      247.1192       2535.3554      61.104638      0             -1618.3094      0             -3521.5763     -2296.3065    
     13300   6650           298           -1656.4118     -2338.6119     -1272.6295      7699.5768      0.99809089     19.746446      230.31419      2467.6114      62.028715      0             -1594.4355      0             -3504.1307     -2338.6119    
     13400   6700           298           -1629.1608     -2311.3609      324.80007      7761.1922      0.99016714     19.79898       229.12424      2388.4931      71.623186      0             -1561.9504      0             -3438.651      -2311.3609    
     13500   6750           298           -1632.3943     -2314.5944     -1165.5733      7782.8411      0.98741288     19.817372      237.00918      2374.9994      72.308961      0             -1555.264       0             -3443.6479     -2314.5944    
     13600   6800           298           -1618.4924     -2300.6925      238.0296       7748.9515      0.99173126     19.788566      227.3955       2422.2513      59.903746      0             -1573.048       0             -3437.1951     -2300.6925    
     13700   6850           298           -1630.7385     -2312.9387      569.10832      7689.8686      0.99935095     19.738144      237.52433      2508.9204      68.803198      0             -1611.9796      0             -3516.207      -2312.9387    
     13800   6900           298           -1604.9298     -2287.1299      388.66549      7649.9073      1.0045713      19.703894      250.64067      2430.3606      71.153042      0             -1591.7396      0             -3447.5447     -2287.1299    
     13900   6950           298           -1575.9503     -2258.1504      1424.9129      7626.9108      1.0076003      19.68413       248.43109      2426.7058      78.470675      0             -1591.0609      0             -3420.6971     -2258.1504    
     14000   7000           298           -1618.7721     -2300.9722     -148.79357      7623.6294      1.008034       19.681307      253.48831      2474.6346      64.726493      0             -1605.3076      0             -3488.5141     -2300.9722    
     14100   7050           298           -1661.1015     -2343.3016     -44.759761      7632.4135      1.0068738      19.688863      233.80862      2433.5555      75.202843      0             -1595.8593      0             -3490.0093     -2343.3016    
     14200   7100           298           -1665.8088     -2348.0089      209.84805      7642.9914      1.0054803      19.697954      261.73216      2531.2807      85.36862       0             -1626.87        0             -3599.5204     -2348.0089    
     14300   7150           298           -1644.4678     -2326.6679      607.07837      7672.8239      1.0015709      19.72355       245.20337      2575.9881      74.239613      0             -1638.8065      0             -3583.2924     -2326.6679    
     14400   7200           298           -1602.0748     -2284.2749     -793.17759      7731.583       0.99395913     19.77377       258.45613      2460.5846      68.049218      0             -1587.6898      0             -3483.6751     -2284.2749    
     14500   7250           298           -1559.4054     -2241.6055      3145.4564      7794.9436      0.98587981     19.827638      236.19908      2362.4292      66.082805      0             -1545.4218      0             -3360.8948     -2241.6055    
     14600   7300           298           -1596.0938     -2278.2939     -4858.3093      7824.5973      0.98214352     19.85275       263.51044      2380.8501      73.611774      0             -1554.5725      0             -3441.6936     -2278.2939    
     14700   7350           298           -1621.1201     -2303.3202      2601.6309      7812.8823      0.98361619     19.842837      229.47323      2405.5394      75.226211      0             -1560.8626      0             -3452.6964     -2303.3202    
     14800   7400           298           -1619.228      -2301.4281      1208.6118      7793.6829      0.98603928     19.82657       245.08408      2528.7899      89.211314      0             -1604.3399      0             -3560.1735     -2301.4281    
     14900   7450           298           -1640.3939     -2322.594      -2413.2609      7787.5507      0.98681573     19.821368      263.84231      2551.2916      64.69784       0             -1610.1934      0             -3592.2324     -2322.594     
     15000   7500           298           -1653.8396     -2336.0397      222.75817      7778.6128      0.98794961     19.813782      242.15824      2516.2366      62.928371      0             -1604.1833      0             -3553.1796     -2336.0397    
     15100   7550           298           -1620.1427     -2302.3428      757.8621       7769.6361      0.98909104     19.806157      237.11646      2412.1118      56.871504      0             -1568.4784      0             -3439.9642     -2302.3428    
     15200   7600           298           -1597.2179     -2279.418       738.05424      7739.3597      0.99296038     19.780397      238.90451      2489.3958      66.846245      0             -1597.0476      0             -3477.517      -2279.418     
     15300   7650           298           -1622.3859     -2304.5861     -539.88225      7721.2344      0.9952913      19.764944      248.06516      2529.3081      57.58133       0             -1612.0161      0             -3527.5245     -2304.5861    
     15400   7700           298           -1585.2362     -2267.4364      113.59486      7718.7394      0.99561303     19.762814      244.87061      2454.7234      58.160661      0             -1583.14        0             -3442.051      -2267.4364    
     15500   7750           298           -1647.1051     -2329.3052     -1713.3621      7709.3219      0.99682924     19.754774      237.77272      2400.8814      71.396157      0             -1571.4085      0             -3467.947      -2329.3052    
     15600   7800           298           -1649.7313     -2331.9314      2849.5926      7664.1712      1.0027017      19.716133      214.78726      2504.5225      65.057496      0             -1605.134       0             -3511.1647     -2331.9314    
     15700   7850           298           -1650.3884     -2332.5885     -1166.3161      7616.022       1.0090409      19.674758      255.01603      2585.0576      55.235684      0             -1645.9016      0             -3581.9963     -2332.5885    
     15800   7900           298           -1621.5691     -2303.7692     -308.254        7612.2211      1.0095447      19.671484      245.35345      2494.9355      59.998591      0             -1612.9064      0             -3491.1504     -2303.7692    
     15900   7950           298           -1615.5047     -2297.7048      3094.0437      7640.3682      1.0058255      19.6957        238.77762      2431.5857      55.643886      0             -1590.7892      0             -3432.9228     -2297.7048    
     16000   8000           298           -1615.69       -2297.8901     -2259.4861      7681.9707      1.0003784      19.731384      258.54618      2534.3424      73.765534      0             -1620.481       0             -3544.0633     -2297.8901    
     16100   8050           298           -1678.5946     -2360.7947      1307.0212      7736.5986      0.99331475     19.778045      212.6953       2306.4064      79.678179      0             -1534.9889      0             -3424.5858     -2360.7947    
     16200   8100           298           -1637.5139     -2319.714      -1498.2275      7734.5119      0.99358274     19.776266      228.01789      2461.6905      72.52697       0             -1586.367       0             -3495.5824     -2319.714     
     16300   8150           298           -1648.5088     -2330.7089     -1754.1162      7710.9233      0.99662221     19.756142      242.15585      2548.71        89.069296      0             -1620.3692      0             -3590.2749     -2330.7089    
     16400   8200           298           -1650.2159     -2332.416       3636.2378      7702.8049      0.99767261     19.749206      213.65566      2538.167       77.519046      0             -1609.5017      0             -3552.256      -2332.416     
     16500   8250           298           -1635.849      -2318.0491     -993.15063      7731.9879      0.99390707     19.774115      246.05221      2619.3849      74.742257      0             -1640.3483      0             -3617.8802     -2318.0491    
     16600   8300           298           -1695.945      -2378.1451     -683.1358       7802.5158      0.98492303     19.834057      234.68058      2606.4849      70.714361      0             -1630.9586      0             -3659.0663     -2378.1451    
     16700   8350           298           -1667.2942     -2349.4943     -661.83161      7885.9167      0.97450655     19.904475      229.70177      2409.3766      70.169743      0             -1552.046       0             -3506.6964     -2349.4943    
     16800   8400           298           -1666.6568     -2348.8569     -819.29052      7910.1157      0.97152529     19.924814      236.41112      2399.4637      66.095693      0             -1545.7269      0             -3505.1005     -2348.8569    
     16900   8450           298           -1608.734      -2290.9341     -78.86269       7867.539       0.97678289     19.889001      259.8832       2522.3116      69.236264      0             -1590.3185      0             -3552.0467     -2290.9341    
     17000   8500           298           -1634.9526     -2317.1527      37.849197      7817.631       0.9830187      19.846856      253.91169      2539.5347      60.670096      0             -1599.82        0             -3571.4492     -2317.1527    
     17100   8550           298           -1651.2376     -2333.4377      846.69607      7789.6006      0.98655604     19.823107      257.86044      2596.0358      57.450533      0             -1617.6639      0             -3627.1205     -2333.4377    
     17200   8600           298           -1638.8027     -2321.0028      409.29695      7779.8319      0.98779479     19.814817      257.83705      2532.4933      66.359697      0             -1598.0267      0             -3579.6662     -2321.0028    
     17300   8650           298           -1657.7413     -2339.9414      1298.6325      7763.842       0.9898292      19.801233      268.65958      2556.2572      80.563386      0             -1614.2325      0             -3631.1891     -2339.9414    
     17400   8700           298           -1659.6007     -2341.8008     -2307.4985      7748.924       0.99173479     19.788542      264.80385      2559.6799      72.772733      0             -1622.8358      0             -3616.2215     -2341.8008    
     17500   8750           298           -1631.4348     -2313.6349      2846.6699      7742.8536      0.9925123      19.783373      232.63192      2518.9574      74.418529      0             -1606.7425      0             -3532.9002     -2313.6349    
     17600   8800           298           -1607.1537     -2289.3538      225.74847      7761.8801      0.99007938     19.799565      272.76645      2487.6044      77.945737      0             -1596.2588      0             -3531.4116     -2289.3538    
     17700   8850           298           -1570.0607     -2252.2608     -442.55289      7804.0308      0.98473183     19.83534       264.49188      2497.7881      73.079489      0             -1594.8245      0             -3492.7957     -2252.2608    
     17800   8900           298           -1593.2438     -2275.4439      1848.7147      7867.5847      0.97677721     19.889039      258.08556      2428.1052      80.92893       0             -1563.9203      0             -3478.6433     -2275.4439    
     17900   8950           298           -1598.4225     -2280.6226     -2887.0375      7925.4363      0.96964725     19.93767       254.5489       2392.074       74.11459       0             -1546.6612      0             -3454.6988     -2280.6226    
     18000   9000           298           -1636.4449     -2318.645      -291.37966      7944.3966      0.96733306     19.953556      242.84901      2294.9148      76.114396      0             -1511.3907      0             -3421.1326     -2318.645     
     18100   9050           298           -1637.4439     -2319.644      -2751.4783      7882.2576      0.97495894     19.901396      261.03959      2442.1042      74.745431      0             -1564.732       0             -3532.8012     -2319.644     
     18200   9100           298           -1671.9015     -2354.1016      3060.2664      7767.1209      0.98941134     19.80402       228.68482      2626.5685      73.287669      0             -1636.8265      0             -3645.816      -2354.1016    
     18300   9150           298           -1711.6855     -2393.8856      1239.1795      7684.4153      1.0000601      19.733477      242.44019      2711.261       72.431884      0             -1677.5688      0             -3742.4499     -2393.8856    
     18400   9200           298           -1685.0545     -2367.2546      904.68922      7666.5775      1.002387       19.718196      242.81445      2638.5825      74.924605      0             -1656.0086      0             -3667.5676     -2367.2546    
     18500   9250           298           -1676.4248     -2358.6249     -969.69231      7695.0222      0.99868165     19.742552      261.27438      2574.8404      76.482954      0             -1635.8144      0             -3635.4082     -2358.6249    
     18600   9300           298           -1639.0907     -2321.2908     -922.56288      7738.4589      0.99307596     19.77963       264.48631      2473.2908      73.997033      0             -1594.1786      0             -3538.8864     -2321.2908    
     18700   9350           298           -1621.6651     -2303.8652      448.47331      7776.6993      0.9881927      19.812157      253.93236      2437.7364      87.460024      0             -1574.1902      0             -3508.8037     -2303.8652    
     18800   9400           298           -1584.7699     -2266.97       -424.15518      7785.5161      0.98707361     19.819642      249.41633      2314.8042      78.754736      0             -1532.9257      0             -3377.0196     -2266.97      
     18900   9450           298           -1602.7622     -2284.9623     -1845.0532      7731.3221      0.99399266     19.773547      278.22642      2429.6081      84.880976      0             -1577.7813      0             -3499.8964     -2284.9623    
     19000   9500           298           -1686.6274     -2368.8275      2274.9518      7626.7591      1.0076203      19.683999      232.00573      2455.534       80.547689      0             -1597.4041      0             -3539.5108     -2368.8275    
     19100   9550           298           -1685.2104     -2367.4105     -2561.4136      7523.2044      1.0214899      19.594505      259.422        2678.0161      87.394033      0             -1687.4453      0             -3704.7973     -2367.4105    
     19200   9600           298           -1707.6337     -2389.8338      1552.4036      7497.8377      1.0249458      19.572457      244.10756      2673.5468      82.509526      0             -1687.8492      0             -3702.1485     -2389.8338    
     19300   9650           298           -1655.2623     -2337.4624      2160.7903      7553.7885      1.0173541      19.621021      247.89001      2608.252       81.968579      0             -1655.0863      0             -3620.4866     -2337.4624    
     19400   9700           298           -1642.45       -2324.6501     -2587.2482      7658.4303      1.0034533      19.711209      267.50976      2529.0535      77.377502      0             -1624.1391      0             -3574.4518     -2324.6501    
     19500   9750           298           -1632.2235     -2314.4236      1204.6747      7762.3591      0.99001829     19.799972      247.03106      2397.5032      66.55541       0             -1567.2756      0             -3458.2377     -2314.4236    
     19600   9800           298           -1612.3038     -2294.5039     -398.66814      7808.0944      0.98421934     19.838783      260.731        2323.8754      75.780117      0             -1537.6593      0             -3417.2311     -2294.5039    
     19700   9850           298           -1604.6811     -2286.8812     -1174.9158      7794.0283      0.98599558     19.826862      264.98759      2471.9747      72.53399       0             -1586.1444      0             -3510.2331     -2286.8812    
     19800   9900           298           -1593.5038     -2275.7039      439.29341      7787.5162      0.9868201      19.821339      278.91095      2584.2385      83.601123      0             -1624.5991      0             -3597.8554     -2275.7039    
     19900   9950           298           -1640.8748     -2323.0749      679.59767      7830.5441      0.98139763     19.857778      261.10556      2608.9419      76.189709      0             -1634.6301      0             -3634.682      -2323.0749    
     20000   10000          298           -1663.0798     -2345.28       -1062.9659      7906.1139      0.97201705     19.921453      259.76031      2485.8987      71.904983      0             -1580.4954      0             -3582.3485     -2345.28      
     20100   10050          298           -1641.4588     -2323.6589     -589.38512      7935.8756      0.96837172     19.94642       250.32466      2402.1067      70.35014       0             -1551.9745      0             -3494.4659     -2323.6589    
     20200   10100          298           -1649.4937     -2331.6938     -1652.681       7888.6728      0.97416608     19.906794      258.80513      2452.4861      79.734712      0             -1568.2293      0             -3554.4904     -2331.6938    
     20300   10150          298           -1648.499      -2330.6992     -198.71106      7806.7023      0.98439484     19.837604      271.97252      2568.0308      70.009419      0             -1619.0232      0             -3621.6887     -2330.6992    
     20400   10200          298           -1597.0306     -2279.2308      154.24919      7748.4745      0.99179232     19.788159      281.3642       2594.4375      73.688876      0             -1631.7969      0             -3596.9244     -2279.2308    
     20500   10250          298           -1601.7258     -2283.9259      1333.1599      7731.1883      0.99400987     19.773433      259.36455      2500.6584      69.500514      0             -1599.5568      0             -3513.8926     -2283.9259    
     20600   10300          298           -1619.8394     -2302.0396      493.33557      7721.5194      0.99525458     19.765187      260.17153      2450.276       78.809016      0             -1586.3138      0             -3504.9823     -2302.0396    
     20700   10350          298           -1645.6917     -2327.8918     -908.67813      7699.9516      0.99804232     19.746767      261.05834      2553.7794      69.800435      0             -1625.5706      0             -3586.9595     -2327.8918    
     20800   10400          298           -1622.8327     -2305.0328      798.02346      7702.848       0.99766703     19.749243      275.09658      2629.6839      77.548827      0             -1646.9345      0             -3640.4276     -2305.0328    
     20900   10450          298           -1625.2094     -2307.4095     -145.13136      7744.7222      0.99227285     19.784965      257.05667      2524.3165      78.02901       0             -1608.2509      0             -3558.5607     -2307.4095    
     21000   10500          298           -1630.6008     -2312.8009     -620.59222      7785.0442      0.98713344     19.819241      246.7064       2432.6706      79.450041      0             -1574.8981      0             -3496.7299     -2312.8009    
     21100   10550          298           -1656.3019     -2338.502      -1176.7103      7799.3494      0.98532289     19.831373      256.16872      2447.2693      66.033083      0             -1577.5669      0             -3530.4062     -2338.502     
     21200   10600          298           -1627.1671     -2309.3673      1435.3989      7792.3159      0.98621226     19.82541       273.32316      2623.8021      69.932368      0             -1634.3389      0             -3642.086      -2309.3673    
     21300   10650          298           -1636.8423     -2319.0424     -633.95124      7810.9721      0.98385674     19.84122       266.02032      2676.6437      76.457656      0             -1651.7823      0             -3686.3818     -2319.0424    
     21400   10700          298           -1613.1074     -2295.3076      1350.8484      7878.8488      0.97538076     19.898527      276.28146      2691.6153      79.266036      0             -1644.2201      0             -3698.2503     -2295.3076    
     21500   10750          298           -1612.6148     -2294.8149     -733.43822      7999.194       0.96070647     19.999328      289.85263      2527.6903      75.360677      0             -1580.9415      0             -3606.7771     -2294.8149    
     21600   10800          298           -1629.4331     -2311.6332     -3004.3762      8110.8762      0.94747809     20.091973      270.87338      2425.1977      66.979859      0             -1536.9298      0             -3537.7542     -2311.6332    
     21700   10850          298           -1620.3134     -2302.5136     -235.02351      8148.8419      0.94306376     20.123274      260.68526      2435.8685      72.354425      0             -1536.1917      0             -3535.23       -2302.5136    
     21800   10900          298           -1642.8104     -2325.0105     -2792.1593      8119.4332      0.94647955     20.099036      278.37795      2514.8551      70.584495      0             -1568.6255      0             -3620.2025     -2325.0105    
     21900   10950          298           -1634.0837     -2316.2838     -709.16444      8053.7157      0.95420273     20.044663      261.76611      2457.4742      68.338652      0             -1557.9907      0             -3545.8721     -2316.2838    
     22000   11000          298           -1611.9281     -2294.1282      1153.6275      7953.4785      0.96622848     19.961157      249.76247      2473.7547      78.138659      0             -1571.4929      0             -3524.2912     -2294.1282    
     22100   11050          298           -1617.5299     -2299.7301     -1833.5108      7847.9397      0.97922229     19.872472      264.74059      2447.255       73.274695      0             -1574.6087      0             -3510.3916     -2299.7301    
     22200   11100          298           -1631.0858     -2313.2859      8.9970785      7754.6882      0.99099761     19.793448      265.3847       2544.8703      82.586245      0             -1614.7838      0             -3591.3434     -2313.2859    
     22300   11150          298           -1654.9776     -2337.1778      3054.3306      7699.7073      0.99807397     19.746558      250.28895      2664.4549      73.721432      0             -1664.486       0             -3661.157      -2337.1778    
     22400   11200          298           -1688.1382     -2370.3383      1046.7007      7709.5786      0.99679605     19.754993      255.71171      2671.4178      78.990867      0             -1662.9836      0             -3713.475      -2370.3383    
     22500   11250          298           -1661.3252     -2343.5253     -915.56406      7753.8094      0.99110992     19.7927        266.26332      2474.4363      82.362717      0             -1596.6483      0             -3569.9393     -2343.5253    
     22600   11300          298           -1649.2259     -2331.426       991.8691       7756.83        0.99072398     19.79527       244.79095      2387.87        79.065206      0             -1561.6779      0             -3481.4742     -2331.426     
     22700   11350          298           -1630.3967     -2312.5968     -2682.7172      7710.3116      0.99670129     19.755619      270.73116      2450.9433      75.812704      0             -1590.535       0             -3519.549      -2312.5968    
     22800   11400          298           -1656.5918     -2338.7919     -464.19952      7640.765       1.0057733      19.696041      273.47741      2469.8627      70.007289      0             -1606.9178      0             -3545.2215     -2338.7919    
     22900   11450          298           -1632.0407     -2314.2408      511.40763      7585.7819      1.0130633      19.648683      258.50809      2601.1484      56.70358       0             -1650.6027      0             -3579.9981     -2314.2408    
     23000   11500          298           -1666.8321     -2349.0322      1034.9554      7583.3665      1.013386       19.646597      262.8267       2653.4483      52.529447      0             -1671.0034      0             -3646.8333     -2349.0322    
     23100   11550          298           -1684.5473     -2366.7474     -1890.0874      7618.612       1.0086978      19.676988      270.78797      2513.0243      63.526935      0             -1618.9167      0             -3595.1699     -2366.7474    
     23200   11600          298           -1671.2085     -2353.4087      2944.6249      7633.9918      1.0066657      19.69022       257.20215      2534.7549      75.228653      0             -1625.7352      0             -3594.8592     -2353.4087    
     23300   11650          298           -1670.1418     -2352.342       68.664092      7634.0151      1.0066626      19.69024       264.4723       2566.3292      76.859613      0             -1639.1821      0             -3620.821      -2352.342     
     23400   11700          298           -1637.5678     -2319.7679     -1320.4529      7646.0595      1.0050769      19.70059       280.74358      2622.9403      63.586414      0             -1648.0469      0             -3638.9913     -2319.7679    
     23500   11750          298           -1636.7526     -2318.9527      819.36506      7690.2368      0.9993031      19.738459      277.18323      2604.8646      56.507657      0             -1635.7914      0             -3621.7168     -2318.9527    
     23600   11800          298           -1658.3574     -2340.5576     -2811.5016      7750.7164      0.99150545     19.790068      275.81961      2521.126       64.167233      0             -1608.4135      0             -3593.2569     -2340.5576    
     23700   11850          298           -1657.9259     -2340.126      -953.79133      7785.7599      0.9870427      19.819849      264.05578      2465.0039      68.955132      0             -1589.1567      0             -3548.9842     -2340.126     
     23800   11900          298           -1621.6129     -2303.8131      1593.5483      7794.6353      0.98591881     19.827377      274.42861      2590.2155      75.536522      0             -1629.1517      0             -3614.8419     -2303.8131    
     23900   11950          298           -1661.2484     -2343.4486      532.45855      7809.9983      0.9839794      19.840395      261.9916       2473.1059      70.66432       0             -1587.6747      0             -3561.5356     -2343.4486    
     24000   12000          298           -1619.366      -2301.5661     -123.5023       7800.9814      0.98511676     19.832757      264.89329      2530.3524      69.710304      0             -1606.4104      0             -3560.1117     -2301.5661    
     24100   12050          298           -1651.4784     -2333.6785     -244.17329      7778.7538      0.9879317      19.813902      268.25614      2462.575       63.559494      0             -1592.0723      0             -3535.9969     -2333.6785    
     24200   12100          298           -1648.9517     -2331.1518      167.49215      7732.8198      0.99380016     19.774824      269.7474       2560.2711      64.462533      0             -1619.1614      0             -3606.4714     -2331.1518    
     24300   12150          298           -1625.8786     -2308.0788     -1888.4633      7685.8082      0.99987891     19.734669      274.69285      2522.2883      70.52433       0             -1614.5204      0             -3561.0638     -2308.0788    
     24400   12200          298           -1659.0007     -2341.2008      1289.7575      7626.69        1.0076295      19.68394       246.89981      2521.8929      69.881028      0             -1621.6058      0             -3558.2687     -2341.2008    
     24500   12250          298           -1659.4384     -2341.6385      1277.0809      7565.155       1.0158255      19.630858      252.12421      2654.4323      62.241674      0             -1667.7665      0             -3642.6701     -2341.6385    
     24600   12300          298           -1641.6917     -2323.8918     -1646.3653      7543.7299      1.0187106      19.612308      268.13055      2557.1514      65.303132      0             -1637.9726      0             -3576.5043     -2323.8918    
     24700   12350          298           -1632.4758     -2314.6759     -173.18807      7554.9775      1.017194       19.622051      276.62142      2626.2019      63.319664      0             -1658.883       0             -3621.9359     -2314.6759    
     24800   12400          298           -1666.209      -2348.4091      787.89116      7603.3892      1.0107174      19.663874      273.71282      2657.7754      68.816144      0             -1664.3103      0             -3684.4032     -2348.4091    
     24900   12450          298           -1635.47       -2317.6701     -1086.4992      7676.9571      1.0010317      19.727091      288.78783      2544.1634      67.185419      0             -1620.4141      0             -3597.3927     -2317.6701    
     25000   12500          298           -1649.2674     -2331.4675      858.43861      7732.7022      0.99381527     19.774724      265.36213      2571.1525      67.666919      0             -1622.25        0             -3613.399      -2331.4675    
     25100   12550          298           -1653.6947     -2335.8948      206.70725      7779.2961      0.98786284     19.814362      281.77075      2570.7945      67.973679      0             -1614.5075      0             -3641.9262     -2335.8948    
     25200   12600          298           -1639.3031     -2321.5032     -1866.8435      7812.3522      0.98368293     19.842388      285.8619       2476.0302      61.951759      0             -1577.3936      0             -3567.9535     -2321.5032    
     25300   12650          298           -1687.7697     -2369.9698     -814.60422      7804.1422      0.98471776     19.835435      256.541        2547.2405      58.262113      0             -1607.6522      0             -3624.3612     -2369.9698    
     25400   12700          298           -1687.316      -2369.5161      476.98983      7761.3729      0.99014409     19.799133      265.79497      2665.3764      60.931216      0             -1652.446       0             -3709.1728     -2369.5161    
     25500   12750          298           -1662.6315     -2344.8316     -636.20626      7710.9703      0.99661614     19.756182      283.9889       2597.7945      63.781668      0             -1637.2822      0             -3653.1145     -2344.8316    
     25600   12800          298           -1671.1906     -2353.3908      642.69933      7657.4627      1.0035801      19.710378      277.87027      2590.1355      64.580524      0             -1642.2605      0             -3643.7166     -2353.3908    
     25700   12850          298           -1694.4224     -2376.6225      2143.0313      7623.5551      1.0080438      19.681243      271.37749      2709.0278      73.661109      0             -1681.3371      0             -3749.3518     -2376.6225    
     25800   12900          298           -1712.4651     -2394.6652     -1228.0033      7639.7052      1.0059128      19.695131      268.77399      2633.3272      81.241698      0             -1661.139       0             -3716.8691     -2394.6652    
     25900   12950          298           -1672.5987     -2354.7988      256.09631      7670.1201      1.001924       19.721233      280.08659      2625.9727      76.880769      0             -1653.2789      0             -3684.46       -2354.7988    
     26000   13000          298           -1692.138      -2374.3381      591.80621      7698.1333      0.99827804     19.745212      263.78472      2559.8295      78.158949      0             -1627.051       0             -3649.0603     -2374.3381    
     26100   13050          298           -1675.1383     -2357.3384     -354.1433       7718.1617      0.99568755     19.762321      289.13823      2561.3262      68.446889      0             -1628.0491      0             -3648.2006     -2357.3384    
     26200   13100          298           -1646.105      -2328.3051     -1090.6509      7722.2816      0.99515634     19.765837      267.30178      2497.8778      64.242203      0             -1606.5867      0             -3551.1401     -2328.3051    
     26300   13150          298           -1651.9309     -2334.131       2851.7066      7693.8477      0.99883411     19.741548      266.87825      2547.4536      76.640517      0             -1619.9111      0             -3605.1922     -2334.131     
     26400   13200          298           -1643.1308     -2325.3309      443.26461      7673.8423      1.001438       19.724422      283.32873      2661.9224      67.792168      0             -1664.5224      0             -3673.8518     -2325.3309    
     26500   13250          298           -1676.7887     -2358.9888      1192.9643      7701.9288      0.9977861      19.748457      286.41937      2689.0694      47.565646      0             -1671.7386      0             -3710.3046     -2358.9888    
     26600   13300          298           -1670.3454     -2352.5455      866.11309      7753.5678      0.99114081     19.792494      250.25949      2561.3346      55.546412      0             -1619.8394      0             -3599.8466     -2352.5455    
     26700   13350          298           -1676.684      -2358.8841     -2678.3012      7777.0357      0.98814996     19.812443      260.63803      2471.1626      71.967658      0             -1593.8944      0             -3568.758      -2358.8841    
     26800   13400          298           -1669.6045     -2351.8047     -1315.2608      7763.4986      0.98987298     19.800941      288.64942      2597.3822      67.51727       0             -1637.5234      0             -3667.8302     -2351.8047    
     26900   13450          298           -1661.76       -2343.9601      1082.4518      7764.5784      0.98973532     19.801859      271.68728      2611.1399      68.661936      0             -1636.3698      0             -3659.0794     -2343.9601    
     27000   13500          298           -1673.6346     -2355.8347     -3188.7234      7788.5397      0.98669042     19.822207      282.32673      2486.5025      62.534415      0             -1592.3581      0             -3594.8402     -2355.8347    
     27100   13550          298           -1665.8423     -2348.0424     -354.14267      7766.0408      0.98954895     19.803102      264.0374       2377.312       71.844572      0             -1561.7535      0             -3499.4828     -2348.0424    
     27200   13600          298           -1681.9752     -2364.1753     -3415.1784      7668.0678      1.0021922      19.719473      287.1866       2607.462       75.031565      0             -1649.544       0             -3684.3115     -2364.1753    
     27300   13650          298           -1648.8406     -2331.0407      3657.2377      7573.3087      1.0147318      19.637908      259.29108      2683.186       79.871901      0             -1685.0506      0             -3668.339      -2331.0407    
     27400   13700          298           -1624.0321     -2306.2322      3234.9531      7546.2874      1.0183653      19.614524      262.83612      2552.4623      75.889942      0             -1640.9879      0             -3556.4326     -2306.2322    
     27500   13750          298           -1640.7876     -2322.9877     -2837.8903      7555.5554      1.0171162      19.622551      302.91702      2585.6252      81.756547      0             -1654.8356      0             -3638.4508     -2322.9877    
     27600   13800          298           -1680.8635     -2363.0636      1031.3064      7575.8318      1.0143939      19.640089      282.01298      2608.1965      79.813297      0             -1654.1279      0             -3678.9585     -2363.0636    
     27700   13850          298           -1689.1429     -2371.3431      2285.6442      7600.6818      1.0110774      19.661539      261.57998      2512.5704      77.741173      0             -1619.578       0             -3603.6566     -2371.3431    
     27800   13900          298           -1650.1066     -2332.3067     -1807.4094      7600.5801      1.0110909      19.661452      297.57435      2498.4203      72.91632       0             -1618.7567      0             -3582.461      -2332.3067    
     27900   13950          298           -1656.1329     -2338.333      -49.714967      7560.0687      1.016509       19.626457      283.6559       2527.4966      77.3241        0             -1633.854       0             -3592.9556     -2338.333     
     28000   14000          298           -1648.0393     -2330.2394      2036.1287      7499.266       1.0247506      19.5737        271.86237      2663.9008      83.591445      0             -1680.872       0             -3668.7221     -2330.2394    
     28100   14050          298           -1662.6176     -2344.8177      1093.2058      7480.4457      1.0273288      19.557312      286.54799      2688.616       72.673622      0             -1696.6024      0             -3696.0528     -2344.8177    
[...]
    193800   96900          298           -1743.6655     -2425.8656      1004.5682      7563.7349      1.0160162      19.629629      310.36035      2733.1202      56.137531      0             -1704.4363      0             -3821.0474     -2425.8656    
    193900   96950          298           -1745.7234     -2427.9236      345.1096       7579.8128      1.0138611      19.643528      312.04591      2737.6579      59.765345      0             -1703.3731      0             -3834.0197     -2427.9236    
    194000   97000          298           -1751.3271     -2433.5272      867.50183      7586.3287      1.0129903      19.649155      313.80935      2713.9086      62.225198      0             -1691.2952      0             -3832.1752     -2433.5272    
    194100   97050          298           -1732.3962     -2414.5963     -1064.5774      7577.5252      1.0141672      19.641552      323.25832      2730.5836      67.838827      0             -1696.4524      0             -3839.8247     -2414.5963    
    194200   97100          298           -1732.6497     -2414.8498      499.02599      7561.0023      1.0163834      19.627265      301.52787      2777.9817      70.24333       0             -1714.2804      0             -3850.3224     -2414.8498    
    194300   97150          298           -1709.0312     -2391.2313     -1655.465       7557.6343      1.0168364      19.62435       316.59774      2735.483       82.681729      0             -1702.786       0             -3823.2077     -2391.2313    
    194400   97200          298           -1714.2734     -2396.4735     -1226.5805      7588.0943      1.0127546      19.65068       311.07414      2641.9752      59.141562      0             -1666.4787      0             -3742.1857     -2396.4735    
    194500   97250          298           -1739.5376     -2421.7377     -484.01269      7611.8602      1.0095926      19.671173      304.5371       2707.605       65.888989      0             -1682.7524      0             -3817.0164     -2421.7377    
    194600   97300          298           -1736.7687     -2418.9689     -486.31682      7623.6664      1.0080291      19.681338      294.88209      2661.6508      76.076415      0             -1662.2683      0             -3789.3099     -2418.9689    
    194700   97350          298           -1744.3908     -2426.5909      24.484665      7608.4432      1.010046       19.66823       307.69637      2628.266       70.919597      0             -1658.0793      0             -3775.3936     -2426.5909    
    194800   97400          298           -1758.7432     -2440.9433     -160.64808      7551.1459      1.0177101      19.618733      296.43152      2788.6322      64.679307      0             -1716.946       0             -3873.7403     -2440.9433    
    194900   97450          298           -1761.6157     -2443.8158      1420.6254      7505.3486      1.0239201      19.57899       301.31789      2822.645       78.573984      0             -1737.0142      0             -3909.3385     -2443.8158    
    195000   97500          298           -1774.2129     -2456.413       1893.6898      7487.207       1.0264011      19.563202      308.34583      2897.2659      70.069196      0             -1763.7464      0             -3968.3476     -2456.413     
    195100   97550          298           -1746.844      -2429.0441     -1874.1674      7530.9557      1.0204386      19.601232      335.54724      2834.4913      74.300872      0             -1739.6941      0             -3933.6894     -2429.0441    
    195200   97600          298           -1745.7391     -2427.9392      3761.696       7635.4491      1.0064735      19.691473      294.67853      2729.3499      61.052152      0             -1690.8086      0             -3822.2112     -2427.9392    
    195300   97650          298           -1734.9646     -2417.1647     -2830.8092      7763.2394      0.98990603     19.800721      326.49964      2655.3393      61.672149      0             -1658.6736      0             -3802.0022     -2417.1647    
    195400   97700          298           -1716.5112     -2398.7113     -2569.1335      7836.3728      0.98066767     19.862704      317.74981      2563.5175      56.247936      0             -1616.2         0             -3720.0265     -2398.7113    
    195500   97750          298           -1751.7995     -2433.9996     -1030.942       7816.3833      0.98317562     19.8458        306.13122      2756.5265      74.476164      0             -1679.0146      0             -3892.1189     -2433.9996    
    195600   97800          298           -1786.9305     -2469.1306      1972.3856      7754.6807      0.99099857     19.793441      280.88892      2760.5368      78.067061      0             -1688.0197      0             -3900.6037     -2469.1306    
    195700   97850          298           -1810.8057     -2493.0058     -297.70715      7697.5897      0.99834854     19.744748      289.01998      2829.8834      72.312241      0             -1720.134       0             -3964.0874     -2493.0058    
    195800   97900          298           -1805.4264     -2487.6265     -991.43727      7653.1665      1.0041435      19.706692      299.91645      2855.3111      59.61347       0             -1737.9859      0             -3964.4816     -2487.6265    
    195900   97950          298           -1783.4482     -2465.6483     -283.46091      7630.145       1.0071732      19.686912      327.36135      2936.4324      75.286826      0             -1763.0083      0             -4041.7205     -2465.6483    
    196000   98000          298           -1749.4495     -2431.6496      1495.5269      7669.0566      1.002063       19.720321      308.76484      2842.3987      76.795819      0             -1723.8191      0             -3935.7898     -2431.6496    
    196100   98050          298           -1757.2242     -2439.4244     -822.96581      7749.9823      0.99159936     19.789443      324.59545      2715.6308      76.208161      0             -1671.6764      0             -3884.1824     -2439.4244    
    196200   98100          298           -1780.4023     -2462.6024     -1224.2524      7800.5231      0.98517463     19.832368      296.10547      2672.8335      58.442957      0             -1655.4862      0             -3834.4982     -2462.6024    
    196300   98150          298           -1786.0272     -2468.2273     -289.61217      7778.543       0.98795847     19.813723      298.98993      2679.8336      59.48868       0             -1658.5622      0             -3847.9773     -2468.2273    
    196400   98200          298           -1769.8008     -2452.0009     -1617.4721      7701.0354      0.99790186     19.747693      283.52929      2689.7118      74.636269      0             -1669.5836      0             -3830.2947     -2452.0009    
    196500   98250          298           -1749.8024     -2432.0025      1784.618       7623.1921      1.0080918      19.68093       308.52481      2839.1494      81.061182      0             -1729.5498      0             -3931.1881     -2432.0025    
    196600   98300          298           -1728.9034     -2411.1036     -72.366339      7595.0808      1.011823       19.656709      300.20919      2824.7728      74.213216      0             -1730.5107      0             -3879.7881     -2411.1036    
    196700   98350          298           -1747.5253     -2429.7254     -2249.7749      7627.5447      1.0075165      19.684675      300.88795      2743.1247      72.161731      0             -1697.5775      0             -3848.3222     -2429.7254    
    196800   98400          298           -1712.279      -2394.4791     -2610.2753      7679.973       1.0006386      19.729673      303.97768      2697.587       70.796204      0             -1674.7531      0             -3792.0869     -2394.4791    
    196900   98450          298           -1746.2379     -2428.438       388.91335      7722.7032      0.99510201     19.766197      283.84749      2640.9681      67.282031      0             -1646.5952      0             -3773.9405     -2428.438     
    197000   98500          298           -1743.1982     -2425.3983      962.52665      7731.8125      0.99392962     19.773965      279.28199      2645.2896      68.467263      0             -1647.1952      0             -3771.242      -2425.3983    
    197100   98550          298           -1698.6205     -2380.8206     -1036.6645      7699.0035      0.99816522     19.745956      309.9937       2683.3778      62.908963      0             -1663.5294      0             -3773.5716     -2380.8206    
    197200   98600          298           -1727.7186     -2409.9187      2132.692       7656.4252      1.0037161      19.709488      307.15904      2810.184       55.695758      0             -1709.4882      0             -3873.4694     -2409.9187    
    197300   98650          298           -1722.5467     -2404.7468     -677.12691      7644.7225      1.0052526      19.699441      307.32235      2693.4753      70.549749      0             -1676.1804      0             -3799.9138     -2404.7468    
    197400   98700          298           -1693.8662     -2376.0663      725.40188      7648.0305      1.0048178      19.702282      313.14525      2715.0584      73.330659      0             -1682.946       0             -3794.6547     -2376.0663    
    197500   98750          298           -1704.709      -2386.9091      1140.6308      7661.7539      1.0030181      19.71406       296.4796       2703.4384      66.2943        0             -1679.6992      0             -3773.4222     -2386.9091    
    197600   98800          298           -1722.6197     -2404.8198      1492.366       7674.7528      1.0013192      19.725202      303.21424      2723.7596      79.917865      0             -1681.2982      0             -3830.4134     -2404.8198    
    197700   98850          298           -1717.3218     -2399.5219     -2125.051       7681.8167      1.0003984      19.731252      330.01484      2682.9003      60.976186      0             -1671.8242      0             -3801.589      -2399.5219    
    197800   98900          298           -1742.2476     -2424.4477     -666.03011      7673.9362      1.0014258      19.724503      320.80213      2689.5129      68.320017      0             -1668.0316      0             -3835.0512     -2424.4477    
    197900   98950          298           -1710.5438     -2392.7439      1685.0245      7644.413       1.0052933      19.699175      289.93594      2701.5532      66.700276      0             -1676.9193      0             -3774.0139     -2392.7439    
    198000   99000          298           -1712.9131     -2395.1132     -642.01702      7626.3421      1.0076754      19.683641      307.19809      2792.6955      60.209387      0             -1710.4872      0             -3844.729      -2395.1132    
    198100   99050          298           -1753.6162     -2435.8164      4345.2242      7618.3124      1.0087375      19.67673       279.30171      2760.102       65.709666      0             -1698.5643      0             -3842.3654     -2435.8164    
    198200   99100          298           -1728.8815     -2411.0816      1329.966       7613.7305      1.0093446      19.672784      313.92625      2762.3341      79.806255      0             -1698.0772      0             -3869.0711     -2411.0816    
    198300   99150          298           -1727.0638     -2409.2639     -2935.3335      7616.072       1.0090342      19.674801      323.61799      2649.362       73.413268      0             -1667.8197      0             -3787.8375     -2409.2639    
    198400   99200          298           -1727.5738     -2409.7739      1104.9661      7611.7647      1.0096052      19.671091      295.30124      2631.1269      78.10189       0             -1658.6197      0             -3755.6843     -2409.7739    
    198500   99250          298           -1762.2587     -2444.4588     -671.56349      7579.1227      1.0139534      19.642932      302.5597       2706.2621      81.066325      0             -1690.8683      0             -3843.4787     -2444.4588    
    198600   99300          298           -1753.7314     -2435.9315     -873.99374      7535.7572      1.0197884      19.605397      313.39858      2817.65        78.721715      0             -1727.3904      0             -3918.3114     -2435.9315    
    198700   99350          298           -1756.8283     -2439.0284     -1543.2064      7513.2343      1.0228454      19.585845      310.2351       2768.8664      56.529296      0             -1718.4413      0             -3856.2178     -2439.0284    
    198800   99400          298           -1751.7205     -2433.9206     -569.74126      7497.7655      1.0249557      19.572394      327.87043      2779.0889      59.354927      0             -1724.4365      0             -3875.7985     -2433.9206    
    198900   99450          298           -1748.9381     -2431.1382      2186.4391      7494.653       1.0253814      19.569685      294.7647       2785.7402      64.4154        0             -1726.5358      0             -3849.5227     -2431.1382    
    199000   99500          298           -1735.2429     -2417.4431      159.15649      7522.7196      1.0215557      19.594084      322.28232      2854.3043      75.163119      0             -1740.0705      0             -3929.1223     -2417.4431    
    199100   99550          298           -1722.3739     -2404.574      -612.02294      7603.3634      1.0107208      19.663851      328.407        2814.8368      62.102196      0             -1720.8646      0             -3889.0554     -2404.574     
    199200   99600          298           -1748.3025     -2430.5026      1499.9726      7708.5945      0.9969233      19.754152      303.39692      2679.2404      69.612134      0             -1666.5207      0             -3816.2314     -2430.5026    
    199300   99650          298           -1717.884      -2400.0841      388.15373      7769.7944      0.98907089     19.806292      298.43954      2652.5965      71.885674      0             -1649.5641      0             -3773.4418     -2400.0841    
    199400   99700          298           -1729.0411     -2411.2413     -1425.9695      7786.337       0.98696955     19.820338      311.49199      2716.1579      67.27137       0             -1667.0792      0             -3839.0833     -2411.2413    
    199500   99750          298           -1752.5988     -2434.7989     -3126.7918      7775.2764      0.98837354     19.810949      340.38883      2790.6185      66.411374      0             -1698.253       0             -3933.9646     -2434.7989    
    199600   99800          298           -1736.411      -2418.6111     -3153.3671      7750.6852      0.99150943     19.790041      319.3322       2682.475       63.551933      0             -1661.2391      0             -3822.7311     -2418.6111    
    199700   99850          298           -1729.3438     -2411.5439      3036.3662      7704.118       0.99750256     19.750328      295.32458      2679.1537      58.206615      0             -1661.8004      0             -3782.4284     -2411.5439    
    199800   99900          298           -1719.3096     -2401.5097      520.49204      7628.2048      1.0074294      19.685243      316.06151      2738.8754      59.218031      0             -1689.8788      0             -3825.7858     -2401.5097    
    199900   99950          298           -1705.7241     -2387.9243     -3891.4595      7560.8724      1.0164009      19.627153      337.35231      2830.6347      60.053613      0             -1735.5089      0             -3880.456      -2387.9243    
    200000   100000         298           -1683.6492     -2365.8493      883.74657      7538.7266      1.0193867      19.607971      332.66778      2835.1854      64.665736      0             -1741.4273      0             -3856.9409     -2365.8493    
Loop time of 1059.56 on 8 procs for 2001 steps with 769 atoms


[MBX] Total MBX fix/pair time= 1060.064350 seconds
[MBX] Timing Summary
[MBX] kernel                      tmin          tavg          tmax         count   %total
[MBX] -----------------------------------------------------------------------------------
[MBX] INIT                :        38.298        38.744        39.446      2001     3.72%
[MBX] UPDATE_XYZ          :       0.31232       0.31913       0.32772      2001     0.03%
[MBX] ACCUMULATE_F        :       0.37547       0.37911       0.38709     10005     0.04%
[MBX] E1B                 :        6.8077        6.8792        6.9506      2001     0.66%
[MBX] E2B_LOCAL           :             0             0             0         0     0.00%
[MBX] E2B_GHOST           :        18.811        19.835        20.573      2001     1.94%
[MBX] E3B_LOCAL           :             0             0             0         0     0.00%
[MBX] E3B_GHOST           :        132.28        136.06        140.19      2001    13.23%
[MBX] E4B_LOCAL           :             0             0             0         0     0.00%
[MBX] E4B_GHOST           :        6.3984        6.4638        6.5363      2001     0.62%
[MBX] DISP                :        124.79        125.39        126.59      2001    11.94%
[MBX] DISP_PME            :        39.155        43.279        47.596      2001     4.49%
[MBX] BUCK                :    6.0608e-05    6.0724e-05    6.1051e-05      2001     0.00%
[MBX] ELE                 :        569.42         570.1        570.34      2001    53.80%
[MBX] INIT_FULL           :             0             0             0         0     0.00%
[MBX] UPDATE_XYZ_FULL     :             0             0             0         0     0.00%
[MBX] ACCUMULATE_F_FULL   :             0             0             0         0     0.00%
[MBX] INIT_LOCAL          :         36.16        36.956        37.452      2001     3.53%
[MBX] UPDATE_XYZ_LOCAL    :      0.074084      0.075639      0.076962      2001     0.01%
[MBX] ACCUMULATE_F_LOCAL  :       0.26578       0.27608       0.28776      4002     0.03%


[MBX] Electrostatics Summary
[MBX] kernel                      tmin          tavg          tmax         count   %total
[MBX] -----------------------------------------------------------------------------------
[MBX] ELE_PERMDIP_REAL    :        30.141        30.317        30.581      2001     2.88%
[MBX] ELE_PERMDIP_PME     :        24.199        25.148        25.869      2001     2.44%
[MBX] ELE_DIPFIELD_REAL   :        129.89        131.14        133.61     44467    12.60%
[MBX] ELE_DIPFIELD_PME    :        306.63         308.4        309.57     44467    29.20%
[MBX] ELE_GRAD_REAL       :        19.197        19.343        19.651      2001     1.85%
[MBX] ELE_GRAD_PME        :        26.868        27.194        27.351      2001     2.58%
[MBX] ELE_GRAD_FIN        :       0.85729       0.86129       0.87152      2001     0.08%
[MBX] ELE_PME_SETUP       :        218.41        219.91        221.39     48469    20.88%
[MBX] ELE_PME_C           :         15.52        15.566        15.608      4002     1.47%
[MBX] ELE_PME_D           :        109.65        111.25        112.28     46468    10.59%
[MBX] ELE_PME_E           :        5.9872        6.0421        6.0746      2001     0.57%
[MBX] DISP_PME_SETUP      :        31.067        35.188        39.571      2001     3.73%
[MBX] DISP_PME_E          :        6.7813        6.8495        6.9096      2001     0.65%
[MBX] ELE_COMM_REVFOR     :        21.164        21.546         22.18     46468     2.09%
[MBX] ELE_COMM_REVSET     :        5.3323        5.3456        5.3621      2001     0.51%
[MBX] ELE_COMM_REV        :        3.1828        3.6653        4.2458     44467     0.40%
[MBX] ELE_COMM_FORSET     :        8.8775        8.8979        8.9101      2001     0.84%
[MBX] ELE_COMM_FOR        :        3.0874         3.102         3.115     44467     0.29%
Total wall time: 0:17:40
