LAMMPS (7 Feb 2024 - Development - patch_7Feb2024_update1-366-g069919ddcd)
  using 1 OpenMP thread(s) per MPI task
Reading data file ...
  orthogonal box = (-10.357685 -10.357685 -10.357685) to (10.357685 10.357685 10.357685)
  2 by 2 by 2 MPI processor grid
  reading atoms ...
  901 atoms
  reading velocities ...
  901 velocities
  scanning bonds ...
  2 = max bonds/atom
  scanning angles ...
  1 = max angles/atom
  reading bonds ...
  600 bonds
  reading angles ...
  300 angles
Finding 1-2 1-3 1-4 neighbors ...
  special bond factors lj:    0        0        0       
  special bond factors coul:  0        0        0       
     2 = max # of 1-2 neighbors
     1 = max # of 1-3 neighbors
     1 = max # of 1-4 neighbors
     2 = max # of special neighbors
  special bonds CPU = 0.001 seconds
  read_data CPU = 0.014 seconds
601 atoms in group water
300 atoms in group na
[0] json_settings= {
   "Note" : "This is a cofiguration file",
   "MBX" : { 
       "box" : [40.00000,0.0,0.0,0.0,40.0000,0.0,0.0,0.0,40.000000],
       "twobody_cutoff"   : 9.0,
       "threebody_cutoff" : 4.5, 
       "max_n_eval_1b"    : 500,
       "max_n_eval_2b"    : 500,
       "max_n_eval_3b"    : 500,
       "dipole_tolerance" : 1E-16,
       "dipole_max_it"    : 100,
       "dipole_method"     : "cg",
       "alpha_ewald_elec" : 0.60,
       "grid_density_elec" : 2.5,
       "spline_order_elec" : 6,
       "alpha_ewald_disp" : 0.60,
       "grid_density_disp" : 2.5,
       "spline_order_disp" : 6,
       "ttm_pairs" : [],
       "ignore_2b_poly" : [],
       "ignore_3b_poly" : []
   }   
}



CITE-CITE-CITE-CITE-CITE-CITE-CITE-CITE-CITE-CITE-CITE-CITE-CITE

Your simulation uses code contributions which should be cited:
- fix mbx command:
The log file lists these citations in BibTeX format.

CITE-CITE-CITE-CITE-CITE-CITE-CITE-CITE-CITE-CITE-CITE-CITE-CITE

Generated 0 of 3 mixed pair_coeff terms from geometric mixing rule
WARNING: Bonds are defined but no bond style is set (../force.cpp:197)
WARNING: Likewise 1-2 special neighbor interactions != 1.0 (../force.cpp:199)
WARNING: Angles are defined but no angle style is set (../force.cpp:202)
WARNING: Likewise 1-3 special neighbor interactions != 1.0 (../force.cpp:204)
Neighbor list info ...
  update: every = 1 steps, delay = 10 steps, check = yes
  max neighbors/atom: 2000, page size: 100000
  master list distance cutoff = 11
  ghost atom cutoff = 11
  binsize = 5.5, bins = 4 4 4
  2 neighbor lists, perpetual/occasional/extra = 1 1 0
  (1) pair mbx, perpetual
      attributes: half, newton on
      pair build: half/bin/newton
      stencil: half/bin/3d
      bin: standard
  (2) compute rdf, occasional, copy from (1)
      attributes: half, newton on
      pair build: copy
      stencil: none
      bin: none
Setting up Verlet run ...
  Unit style    : real
  Current step  : 0
  Time step     : 0.5
Per MPI rank memory allocation (min/avg/max) = 8.242 | 8.244 | 8.245 Mbytes
   Step          Time           Temp          TotEng         PotEng         Press          Volume        Density           Lx      
         0   0              298           -2235.8068     -3035.26        25930.016      8889.5166      1.0138522      20.715371    
       100   50             278.32434     -2185.5641     -2932.2329     -8570.9265      9002.0343      1.00118        20.802405    
       200   100            288.3832      -2136.8048     -2910.4588      1310.0095      9222.8802      0.97720627     20.971147    
       300   150            292.88389     -2092.3064     -2878.0345     -102.38173      9389.809       0.95983383     21.096913    
       400   200            286.64104     -2059.8389     -2828.8191     -2209.2395      9457.2091      0.95299324     21.147271    
       500   250            303.07898     -2033.3236     -2846.4024      2343.8899      9484.3823      0.95026287     21.167506    
       600   300            308.54723     -2021.1509     -2848.8995     -2520.1082      9476.6913      0.95103408     21.161782    
       700   350            292.1876      -2033.3831     -2817.2433     -30.723874      9423.3171      0.95642079     21.121979    
       800   400            285.57151     -2074.3778     -2840.4887      37.799924      9331.2107      0.96586141     21.052936    
       900   450            291.40666     -2099.5888     -2881.3539      631.18689      9239.9376      0.9754023      20.984068    
      1000   500            295.373       -2071.373      -2863.7787      1437.3801      9182.589       0.98149404     20.940564    
      1100   550            298.2147      -2026.1057     -2826.1349     -170.05316      9187.3584      0.98098451     20.944189    
      1200   600            297.5774      -2011.7745     -2810.0941     -2579.4758      9202.521       0.97936819     20.955705    
      1300   650            296.81821     -1986.46       -2782.7428      614.5735       9174.2832      0.98238262     20.934249    
      1400   700            296.51176     -1975.7903     -2771.251       102.91368      9127.3687      0.98743205     20.898504    
      1500   750            302.41961     -2005.0434     -2816.3532      818.11482      9105.8386      0.98976676     20.882059    
      1600   800            284.20368     -2056.6275     -2819.0689      1390.6989      9105.1828      0.98983805     20.881558    
      1700   850            294.96191     -2046.4819     -2837.7848     -1800.9197      9122.1007      0.98800229     20.894483    
      1800   900            293.47199     -2014.6573     -2801.9632      712.13169      9120.1945      0.98820879     20.893027    
      1900   950            307.55724     -2003.1826     -2828.2753      905.49221      9062.8457      0.99446207     20.849142    
      2000   1000           305.38931     -2020.6744     -2839.9512     -1906.708       8957.8204      1.0061216      20.768292    
      2100   1050           294.14264     -2065.5547     -2854.6597      962.27994      8840.7667      1.0194428      20.677434    
      2200   1100           306.01506     -2079.2298     -2900.1853     -468.46134      8764.6925      1.0282912      20.617954    
      2300   1150           292.30303     -2094.6316     -2878.8014      2295.0464      8779.5893      1.0265465      20.629628    
      2400   1200           292.80018     -2119.6245     -2905.128      -2322.7728      8848.3778      1.018566       20.683366    
      2500   1250           293.23236     -2096.8772     -2883.5402      2124.2241      8866.9508      1.0164324      20.697828    
      2600   1300           295.60957     -2048.42       -2841.4604     -2157.3492      8871.597       1.0159001      20.701442    
      2700   1350           304.83726     -2027.2649     -2845.0607     -681.67132      8895.1316      1.0132123      20.719732    
      2800   1400           300.19996     -2023.6077     -2828.9629      1799.9478      8944.259       1.0076471      20.757806    
      2900   1450           302.76084     -2056.4324     -2868.6577     -1587.6749      9006.3709      1.0006979      20.805745    
      3000   1500           287.49102     -2095.2204     -2866.4809     -933.40849      9021.8185      0.99898444     20.817634    
      3100   1550           288.04038     -2058.8456     -2831.5799     -172.41553      8983.0541      1.0032953      20.787775    
      3200   1600           299.603       -2017.3103     -2821.0639      65.41231       8951.2253      1.0068629      20.763194    
      3300   1650           310.13156     -2007.8919     -2839.8909      475.9616       8963.1404      1.0055244      20.772403    
      3400   1700           304.09891     -2057.0632     -2872.8782     -550.63183      8951.0804      1.0068792      20.763082    
      3500   1750           286.42995     -2074.6374     -2843.0513      1574.6848      8900.8593      1.0125603      20.724178    
      3600   1800           297.41055     -2047.4122     -2845.2841      2252.833       8876.2316      1.0153697      20.705046    
      3700   1850           302.94007     -2011.2991     -2824.0052     -428.20786      8908.3975      1.0117034      20.730027    
      3800   1900           306.76607     -1991.3969     -2814.3672     -1797.5849      8970.4619      1.0047037      20.778057    
      3900   1950           304.99434     -1991.8606     -2810.0778     -160.66838      9005.9035      1.0007498      20.805385    
      4000   2000           304.50669     -1995.6108     -2812.5198     -277.53487      9008.4003      1.0004725      20.807308    
      4100   2050           304.27254     -2021.4703     -2837.7511      229.48486      9018.5145      0.99935043     20.815092    
      4200   2100           289.05777     -2053.9783     -2829.442      -2606.2079      9033.5877      0.99768295     20.826682    
      4300   2150           288.47228     -2044.8133     -2818.7063      171.07823      9045.8974      0.99632529     20.836138    
      4400   2200           291.12672     -2015.9329     -2796.9471      1030.8282      9034.4408      0.99758873     20.827338    
      4500   2250           306.62371     -1981.6647     -2804.253       1107.6757      9027.3435      0.99837304     20.821882    
      4600   2300           314.02773     -1989.5915     -2832.0428     -558.93908      9024.1033      0.99873151     20.819391    
      4700   2350           304.25389     -2042.0639     -2858.2946      730.2435       8989.4519      1.0025813      20.792709    
      4800   2400           306.51057     -2052.341      -2874.6258     -697.86385      8962.6418      1.0055803      20.772017    
      4900   2450           296.00935     -2069.3701     -2863.483      -497.00758      8948.9578      1.007118       20.761441    
      5000   2500           291.7341      -2082.3178     -2864.9614      3150.3327      8937.883       1.0083659      20.752873    
      5100   2550           287.57377     -2100.3116     -2871.7941     -1878.2206      8950.5421      1.0069397      20.762666    
      5200   2600           284.35518     -2115.5583     -2878.4062     -220.93369      8975.0887      1.0041858      20.781629    
      5300   2650           301.79401     -2069.8154     -2879.447       1274.3465      8978.1988      1.0038379      20.784029    
      5400   2700           304.52297     -2041.8103     -2858.7629     -1163.6619      8945.5608      1.0075004      20.758813    
      5500   2750           291.47891     -2047.5348     -2829.4938     -634.42348      8909.1408      1.011619       20.730603    
      5600   2800           294.26932     -2062.7362     -2852.1811      261.81538      8903.7323      1.0122335      20.726407    
      5700   2850           292.01765     -2108.9426     -2892.3468      28.007452      8934.7468      1.0087198      20.750445    
      5800   2900           286.16781     -2116.0212     -2883.7319     -2532.8562      8963.571       1.0054761      20.772735    
      5900   2950           294.06998     -2072.0087     -2860.9187      95.173596      8994.6001      1.0020075      20.796677    
      6000   3000           307.43713     -2048.8648     -2873.6353     -979.76184      9024.605       0.99867599     20.819777    
      6100   3050           297.74391     -2043.9068     -2842.6731     -1367.0917      9015.5255      0.99968176     20.812792    
      6200   3100           298.55165     -2050.2471     -2851.1802      399.9895       8960.5734      1.0058125      20.770419    
      6300   3150           298.29052     -2088.6447     -2888.8774      270.0764       8873.2398      1.015712       20.70272     
      6400   3200           280.68227     -2110.2864     -2863.2809     -1052.7953      8780.8441      1.0263998      20.630611    
      6500   3250           296.55076     -2085.36       -2880.9253      3141.6849      8735.7138      1.0317023      20.595206    
      6600   3300           291.03457     -2046.9833     -2827.7502      5.5966997      8745.7483      1.0305186      20.603088    
      6700   3350           302.4698      -2009.6151     -2821.0597      950.17606      8822.2779      1.0215793      20.66301     
      6800   3400           302.98139     -2000.7871     -2813.6041     -2938.8095      8908.7857      1.0116594      20.730328    
      6900   3450           297.51328     -2045.7161     -2843.8637     -780.61054      8943.7255      1.0077072      20.757394    
      7000   3500           285.00078     -2075.0813     -2839.6612     -2269.5359      8888.3256      1.0139881      20.714446    
      7100   3550           301.25523     -2060.7378     -2868.924      -935.23896      8770.3244      1.0276309      20.622369    
      7200   3600           295.49729     -2042.4851     -2835.2243      4988.0024      8702.2706      1.0356672      20.56889     
      7300   3650           312.5195      -2050.9556     -2889.3607     -434.5574       8739.0417      1.0313095      20.597821    
      7400   3700           294.30669     -2091.088      -2880.6331     -893.87487      8846.0206      1.0188374      20.681529    
      7500   3750           298.35436     -2102.3896     -2902.7935     -404.33881      8946.9409      1.007345       20.759881    
      7600   3800           284.98874     -2089.6208     -2854.1684     -745.05705      8986.9782      1.0028573      20.790801    
      7700   3850           303.51179     -2053.2556     -2867.4955      89.218824      8970.1136      1.0047427      20.777788    
      7800   3900           297.19476     -2040.4585     -2837.7515     -704.90402      8903.8664      1.0122183      20.726512    
      7900   3950           306.92709     -2038.8494     -2862.2517     -1112.9915      8836.8422      1.0198956      20.674374    
      8000   4000           294.35967     -2069.8005     -2859.4877      1878.073       8806.9826      1.0233535      20.651061    
      8100   4050           283.89234     -2123.966      -2885.5722     -748.9794       8830.6535      1.0206103      20.669546    
      8200   4100           295.73683     -2121.8643     -2915.2461     -2575.1092      8862.0161      1.0169984      20.693987    
      8300   4150           306.31833     -2072.0341     -2893.8032      2267.7519      8869.4834      1.0161422      20.699798    
      8400   4200           306.51952     -2049.3128     -2871.6216     -395.85718      8885.3608      1.0143264      20.712142    
      8500   4250           298.16471     -2055.4957     -2855.3908      1702.6894      8900.9928      1.0125451      20.724281    
      8600   4300           290.00175     -2062.8607     -2840.8568     -2169.0575      8915.408       1.0109079      20.735463    
      8700   4350           293.05166     -2076.2951     -2862.4734      556.8084       8932.5752      1.0089651      20.748764    
      8800   4400           290.1159      -2079.7412     -2858.0435      936.6573       8925.9823      1.0097103      20.743658    
      8900   4450           291.39207     -2080.4837     -2862.2096     -2330.1616      8888.2508      1.0139966      20.714388    
      9000   4500           300.06222     -2067.1904     -2872.176       2316.3798      8849.2537      1.0184651      20.684049    
      9100   4550           300.66428     -2031.4705     -2838.0713      1477.2277      8842.4048      1.019254       20.678711    
      9200   4600           305.03305     -2016.31       -2834.6311     -365.99528      8897.741       1.0129151      20.721757    
      9300   4650           302.98943     -2075.622      -2888.4605      1466.7974      9011.6222      1.0001148      20.809788    
      9400   4700           291.01076     -2107.7586     -2888.4616     -1667.7186      9125.957       0.98758479     20.897426    
      9500   4750           298.5341      -2083.7626     -2884.6487     -3216.5234      9192.7708      0.98040694     20.948301    
      9600   4800           299.34953     -2055.6336     -2858.7073      2411.9404      9209.1169      0.97866673     20.96071     
      9700   4850           310.59054     -2049.4809     -2882.7111     -2277.4712      9204.9184      0.97911312     20.957524    
      9800   4900           301.38463     -2090.3897     -2898.923      -65.989636      9180.8364      0.98168141     20.939232    
      9900   4950           297.33733     -2125.1751     -2922.8506      283.55645      9123.1494      0.98788871     20.895283    
     10000   5000           296.14936     -2099.4077     -2893.8962     -1124.9323      9063.1312      0.99443075     20.849361    
     10100   5050           295.8508      -2059.803      -2853.4906     -1101.1248      9043.8418      0.99655175     20.834559    
     10200   5100           297.11597     -2040.4825     -2837.5642      1555.3297      9067.1258      0.99399265     20.852424    
     10300   5150           289.71811     -2057.1491     -2834.3843     -909.83936      9101.242       0.99026664     20.878545    
     10400   5200           290.57009     -2088.2192     -2867.7401     -384.01645      9111.0979      0.98919542     20.886078    
     10500   5250           290.62951     -2101.3888     -2881.069      -50.289385      9104.5525      0.98990657     20.881076    
     10600   5300           294.722       -2081.2284     -2871.8877      114.07043      9077.8727      0.9928159      20.860659    
     10700   5350           308.58609     -2027.9727     -2855.8255     -42.885885      9015.0035      0.99973964     20.812391    
     10800   5400           307.5632      -2018.4235     -2843.5322      1444.1953      8953.4345      1.0066144      20.764902    
     10900   5450           296.46323     -2045.1935     -2840.524      -299.17458      8928.2694      1.0094517      20.745429    
     11000   5500           286.91119     -2083.0629     -2852.7679      71.240446      8933.2853      1.0088849      20.749314    
     11100   5550           291.15627     -2077.2383     -2858.3317      410.27211      8962.4644      1.0056002      20.77188     
     11200   5600           294.3785      -2054.4137     -2844.1514      376.21065      8976.5322      1.0040243      20.782743    
     11300   5650           310.80002     -2032.5775     -2866.3697     -1064.7938      8968.612       1.004911       20.776629    
     11400   5700           288.60967     -2058.2702     -2832.5317     -754.89657      8940.3579      1.0080867      20.754788    
     11500   5750           294.42053     -2097.9589     -2887.8094     -194.49931      8934.3109      1.0087691      20.750108    
     11600   5800           289.58377     -2113.5926     -2890.4674     -120.43117      8911.7684      1.0113208      20.732641    
     11700   5850           301.2412      -2065.7962     -2873.9447     -1211.8397      8851.9017      1.0181605      20.686111    
     11800   5900           304.18957     -2033.8683     -2849.9265      2851.6321      8817.1825      1.0221697      20.659031    
     11900   5950           298.68837     -2051.9689     -2853.2689      462.24633      8864.5421      1.0167086      20.695953    
     12000   6000           288.95611     -2074.4286     -2849.6195     -573.21176      8953.6194      1.0065936      20.765045    
     12100   6050           291.03932     -2081.0845     -2861.8641     -1425.739       9052.484       0.99560036     20.841194    
     12200   6100           295.37908     -2071.3998     -2863.8218      1487.0455      9143.8954      0.98564736     20.91111     
     12300   6150           306.50387     -2054.4738     -2876.7407     -3145.1117      9181.4953      0.98161095     20.939733    
     12400   6200           302.63666     -2060.8692     -2872.7614     -192.25357      9142.9102      0.98575357     20.910359    
     12500   6250           289.7349      -2119.9203     -2897.2005      426.12567      9076.13        0.99300653     20.859324    
     12600   6300           296.32683     -2117.9022     -2912.8668      623.8808       9014.6263      0.99978147     20.8121      
     12700   6350           300.71571     -2098.7429     -2905.4816      816.73244      8981.8877      1.0034256      20.786875    
     12800   6400           301.63856     -2052.8338     -2862.0483      2458.1157      9010.4026      1.0002501      20.808849    
     12900   6450           308.58741     -2008.7332     -2836.5896      1230.4463      9101.5187      0.99023654     20.878756    
     13000   6500           299.68065     -2045.319      -2849.281       432.5095       9215.0088      0.97804099     20.965179    
     13100   6550           300.69789     -2070.9804     -2877.6714     -3616.8067      9277.6509      0.97143732     21.012578    
     13200   6600           309.56557     -2067.5698     -2898.0503     -1858.0294      9238.7614      0.97552648     20.983177    
     13300   6650           306.16722     -2031.343      -2852.7066      79.58719       9138.7807      0.986199       20.90721     
     13400   6700           314.54872     -1982.1325     -2825.9814      1488.3415      9056.0865      0.99520431     20.843958    
     13500   6750           313.77308     -2012.9448     -2854.713      -435.43816      9039.0472      0.99708035     20.830877    
     13600   6800           301.75336     -2049.0721     -2858.5947      978.32351      9028.1957      0.9982788      20.822538    
     13700   6850           293.13774     -2087.0092     -2873.4183     -1141.6782      9010.7831      1.0002079      20.809142    
     13800   6900           291.38785     -2101.6462     -2883.3609      613.14846      8986.2347      1.0029402      20.790228    
     13900   6950           296.90587     -2082.4922     -2879.0102      1572.2923      8967.9146      1.0049891      20.77609     
     14000   7000           300.33285     -2025.6005     -2831.3122     -35.35482       8966.0222      1.0052012      20.774629    
     14100   7050           293.54058     -2031.3222     -2818.8121      2.9462156      8991.5109      1.0023517      20.794296    
     14200   7100           295.06181     -2056.1545     -2847.7253      562.47567      9033.943       0.9976437      20.826955    
     14300   7150           301.13729     -2068.83       -2876.6998     -252.44137      9072.0879      0.99344897     20.856227    
     14400   7200           309.89228     -2071.4745     -2902.8315      165.09238      9110.4511      0.98926566     20.885584    
     14500   7250           295.88953     -2110.2499     -2904.0413     -4006.1146      9153.801       0.98458076     20.918658    
     14600   7300           279.26918     -2133.9487     -2883.1522      543.81526      9172.9277      0.98252779     20.933218    
     14700   7350           303.09697     -2081.0532     -2894.1802      1151.9243      9138.7957      0.98619738     20.907222    
     14800   7400           299.25762     -2050.7306     -2853.5577      374.21264      9079.615       0.99262539     20.861994    
     14900   7450           301.26494     -2054.178      -2862.3902     -496.40349      9060.8088      0.99468563     20.84758     
     15000   7500           297.58668     -2075.5501     -2873.8945      84.646776      9130.3489      0.98710975     20.900778    
     15100   7550           289.93309     -2115.8845     -2893.6965      203.72518      9224.9336      0.97698876     20.972703    
     15200   7600           278.45603     -2124.7765     -2871.7986     -2259.187       9272.7926      0.97194629     21.00891     
     15300   7650           297.86191     -2060.0323     -2859.1151      1032.1183      9245.6424      0.97480045     20.988385    
     15400   7700           296.40449     -2044.8307     -2840.0036      1825.6194      9200.3897      0.97959507     20.954087    
     15500   7750           302.05276     -2062.9146     -2873.2403      602.16604      9212.2051      0.97833866     20.963053    
     15600   7800           297.91042     -2108.0761     -2907.289      -2392.5469      9254.3234      0.97388603     20.994952    
     15700   7850           288.58552     -2114.7445     -2888.9412     -205.83042      9269.5948      0.97228159     21.006494    
     15800   7900           288.44808     -2112.27       -2886.098       2474.4338      9267.6686      0.97248367     21.005039    
     15900   7950           293.45205     -2084.5882     -2871.8406      1021.6497      9252.1132      0.97411869     20.993281    
     16000   8000           301.91457     -2019.3919     -2829.3469     -732.39085      9232.4762      0.97619059     20.978418    
     16100   8050           299.43948     -2024.9152     -2828.2302     -9.4834706      9219.5872      0.9775553      20.968651    
     16200   8100           305.00885     -2053.9768     -2872.2329     -986.55284      9213.482       0.97820307     20.964022    
     16300   8150           292.34635     -2077.5662     -2861.8523     -1789.2347      9161.3476      0.98376971     20.924405    
     16400   8200           289.45901     -2081.1144     -2857.6545      682.97572      9065.4285      0.99417874     20.851123    
     16500   8250           294.01835     -2072.4318     -2861.2033      2059.7467      8975.5865      1.0041301      20.782013    
     16600   8300           305.35087     -2045.9564     -2865.1301     -436.72299      8954.4146      1.0065043      20.76566     
     16700   8350           299.08956     -2036.2234     -2838.5996      1037.994       8997.8919      1.0016409      20.799214    
     16800   8400           295.14921     -2060.3923     -2852.1976     -1783.9753      9044.5814      0.99647026     20.835127    
     16900   8450           296.18556     -2089.3698     -2883.9554     -939.30205      9052.0293      0.99565038     20.840845    
     17000   8500           289.04128     -2096.8516     -2872.271       117.15075      9016.1343      0.99961425     20.813261    
     17100   8550           289.93905     -2111.0193     -2888.8472      2304.1369      8958.195       1.0060795      20.768582    
     17200   8600           298.29064     -2111.5515     -2911.7844     -404.50341      8927.9573      1.0094869      20.745188    
     17300   8650           299.93875     -2070.714      -2875.3684     -924.74225      8960.1087      1.0058646      20.77006     
     17400   8700           311.4322      -2045.2089     -2880.6971     -703.95138      9030.4402      0.99803068     20.824263    
     17500   8750           297.26113     -2071.2137     -2868.6848      1464.6108      9113.0815      0.98898011     20.887594    
     17600   8800           293.98435     -2091.2245     -2879.9048     -853.08079      9174.5189      0.98235738     20.934428    
     17700   8850           304.53435     -2102.7186     -2919.7018      635.37064      9172.3196      0.98259293     20.932755    
     17800   8900           286.21808     -2121.7326     -2889.5782      385.94362      9129.5916      0.98719162     20.9002      
     17900   8950           295.26252     -2121.3671     -2913.4765     -607.19699      9089.6131      0.99153355     20.869648    
     18000   9000           307.19638     -2090.8844     -2915.009       2268.6315      9061.3957      0.99462121     20.84803     
     18100   9050           295.71154     -2078.6087     -2871.9226      2309.2637      9033.3988      0.99770381     20.826537    
     18200   9100           297.70086     -2072.9001     -2871.5509     -512.35704      9038.0125      0.9971945      20.830082    
     18300   9150           294.34693     -2077.9697     -2867.6228      102.65847      9048.8511      0.99600007     20.838405    
     18400   9200           298.81641     -2095.6698     -2897.3133     -856.36276      9054.4617      0.9953829      20.842711    
     18500   9250           285.98684     -2126.1061     -2893.3313     -567.18913      9041.7171      0.99678592     20.832928    
     18600   9300           302.49056     -2111.44       -2922.9402     -1514.7942      8974.8176      1.0042161      20.78142     
     18700   9350           306.08386     -2053.9199     -2875.0599     -109.62627      8881.1766      1.0148043      20.708891    
     18800   9400           301.95404     -2057.5549     -2867.6158      2351.6909      8826.9631      1.021037       20.666667    
     18900   9450           296.33314     -2094.4008     -2889.3824      568.30275      8854.9186      1.0178136      20.688461    
     19000   9500           285.62453     -2114.8419     -2881.0951      425.31023      8925.9799      1.0097106      20.743656    
     19100   9550           306.9345      -2085.7483     -2909.1704     -519.70827      9007.6849      1.0005519      20.806757    
     19200   9600           317.03505     -2062.8819     -2913.401      -1431.3233      9059.2979      0.99485153     20.846421    
     19300   9650           297.85505     -2050.0458     -2849.1102     -414.78566      9062.7228      0.99447557     20.849048    
     19400   9700           311.913       -2009.866      -2846.6441     -302.84981      9039.8771      0.99698881     20.831514    
     19500   9750           289.12249     -2030.0074     -2805.6447      1884.7963      9001.9414      1.0011903      20.802334    
     19600   9800           285.12916     -2069.4057     -2834.33       -229.54151      8979.6891      1.0036713      20.785179    
     19700   9850           290.66148     -2066.1009     -2845.8669     -711.09965      8950.7718      1.0069139      20.762843    
     19800   9900           303.29954     -2058.4165     -2872.087       952.4666       8905.6785      1.0120123      20.727917    
     19900   9950           312.20615     -2078.0153     -2915.5799      2911.0198      8894.2121      1.013317       20.719018    
     20000   10000          293.61497     -2105.7543     -2893.4437      7.6857         8962.4071      1.0056067      20.771836    
     20100   10050          284.08799     -2128.5066     -2890.6377     -1350.7108      9043.8356      0.99655243     20.834555    
     20200   10100          294.19339     -2090.4985     -2879.7397      728.96522      9058.2292      0.9949689      20.845602    
     20300   10150          310.00322     -2051.3491     -2883.0037     -1919.5802      9004.7195      1.0008814      20.804474    
     20400   10200          303.98689     -2064.5145     -2880.0289      1817.964       8953.3012      1.0066294      20.764799    
     20500   10250          292.98117     -2100.8098     -2886.7989     -492.3884       8926.0593      1.0097016      20.743718    
     20600   10300          303.88094     -2106.0658     -2921.296      -976.77003      8925.644       1.0097486      20.743396    
     20700   10350          297.78573     -2107.4698     -2906.3482      2266.6397      8925.6368      1.0097494      20.74339     
     20800   10400          300.65136     -2115.1912     -2921.7573     -2425.6195      8891.8476      1.0135865      20.717181    
     20900   10450          303.43202     -2134.981      -2949.0069      527.27144      8808.9831      1.0231211      20.652625    
     21000   10500          282.29928     -2147.7875     -2905.12        262.82815      8714.517       1.0342118      20.578534    
     21100   10550          287.5816      -2127.3462     -2898.8497      944.96908      8684.1673      1.0378262      20.554617    
     21200   10600          298.80737     -2080.1996     -2881.8188      2535.3044      8739.4669      1.0312593      20.598155    
     21300   10650          296.27036     -2057.1163     -2851.9294      1957.3643      8865.8682      1.0165565      20.696985    
     21400   10700          289.08249     -2050.9851     -2826.5151     -3096.8446      9038.6486      0.99712432     20.830571    
     21500   10750          304.39708     -2039.5034     -2856.1183     -922.06811      9149.7613      0.98501546     20.91558     
     21600   10800          289.16721     -2033.2391     -2808.9964      522.4691       9125.7039      0.98761219     20.897233    
     21700   10850          298.04667     -2035.5304     -2835.1089     -268.70676      9040.8489      0.99688165     20.832261    
     21800   10900          297.32173     -2055.5512     -2853.1848     -1716.4645      8962.6746      1.0055767      20.772043    
     21900   10950          293.26081     -2105.9907     -2892.73        2585.6103      8907.2973      1.0118284      20.729173    
     22000   11000          283.58328     -2112.4841     -2873.2611      2468.8631      8898.7466      1.0128007      20.722538    
     22100   11050          297.47098     -2085.4003     -2883.4343      757.93122      8915.524       1.0108948      20.735553    
     22200   11100          298.66089     -2067.123      -2868.3493     -263.26498      8941.6048      1.0079462      20.755753    
     22300   11150          293.35047     -2069.897      -2856.8768      474.34838      8972.2565      1.0045027      20.779443    
     22400   11200          302.69745     -2060.2938     -2872.3491     -711.8278       9021.2919      0.99904276     20.817229    
     22500   11250          304.59078     -2027.2904     -2844.4249      897.01606      9052.4872      0.99560002     20.841196    
     22600   11300          302.95667     -2000.6536     -2813.4042      292.25242      9052.3428      0.9956159      20.841085    
     22700   11350          303.67996     -2006.9109     -2821.6019     -1087.6751      9042.5033      0.99669927     20.833531    
     22800   11400          286.61497     -2058.7277     -2827.638       910.03296      9024.4096      0.99869762     20.819626    
     22900   11450          293.55581     -2065.6012     -2853.1319     -1468.059       9003.1195      1.0010593      20.803241    
     23000   11500          294.66917     -2070.8184     -2861.3359     -71.04697       8967.9326      1.0049871      20.776104    
     23100   11550          293.4347      -2068.7961     -2856.0019      1960.103       8935.8847      1.0085914      20.751326    
     23200   11600          298.5025      -2059.2002     -2860.0015     -2193.6395      8921.2973      1.0102406      20.740028    
     23300   11650          311.11988     -2058.0956     -2892.7459      2675.647       8905.8847      1.0119889      20.728077    
     23400   11700          289.73605     -2100.3625     -2877.6458     -1301.0047      8880.5774      1.0148728      20.708425    
     23500   11750          296.95982     -2121.2834     -2917.9461      1777.9006      8883.4922      1.0145398      20.71069     
     23600   11800          307.64254     -2079.4953     -2904.8169     -148.34377      8929.7964      1.009279       20.746612    
     23700   11850          294.82835     -2041.901      -2832.8456     -195.55617      9011.0102      1.0001827      20.809317    
     23800   11900          293.09247     -2044.5455     -2830.8332     -1901.2238      9095.4553      0.99089667     20.874119    
     23900   11950          298.47534     -2039.3138     -2840.0422     -999.86391      9121.7463      0.98804067     20.894212    
     24000   12000          310.99723     -1997.9036     -2832.2249      369.75286      9072.8743      0.99336286     20.85683     
     24100   12050          319.15547     -1965.0084     -2821.216       2139.2633      9002.8919      1.0010846      20.803066    
     24200   12100          306.17966     -2027.7543     -2849.1514     -56.036951      8974.715       1.0042276      20.78134     
     24300   12150          297.76364     -2052.1634     -2850.9825     -10.671571      8991.6929      1.0023314      20.794436    
     24400   12200          301.91995     -2063.7203     -2873.6897     -679.75596      9027.4008      0.9983667      20.821926    
     24500   12250          308.2749      -2071.6009     -2898.6189     -1244.5813      9049.9382      0.99588043     20.83924     
     24600   12300          287.25365     -2084.0809     -2854.7046     -315.15549      9009.6749      1.0003309      20.808289    
     24700   12350          287.06763     -2108.3503     -2878.475      -1110.5115      8937.4156      1.0084186      20.752511    
     24800   12400          286.94403     -2125.8808     -2895.6739     -1932.263       8876.1478      1.0153793      20.704981    
     24900   12450          294.57034     -2136.3752     -2926.6276      1699.4764      8839.4475      1.019595       20.676406    
     25000   12500          297.38534     -2093.2637     -2891.068       2766.9107      8853.6826      1.0179557      20.687499    
     25100   12550          300.03111     -2056.2395     -2861.1417      1084.6557      8906.7574      1.0118897      20.728755    
     25200   12600          290.72684     -2038.9062     -2818.8475     -1805.4425      8934.4038      1.0087586      20.75018     
     25300   12650          319.21758     -2014.2568     -2870.6311      727.33303      8919.1358      1.0104854      20.738353    
     25400   12700          305.41016     -2023.775      -2843.1077     -1867.3665      8886.6047      1.0141845      20.713109    
     25500   12750          284.03093     -2082.0142     -2843.9923      1870.5894      8907.7734      1.0117743      20.729543    
     25600   12800          289.5291      -2088.1463     -2864.8745     -555.41958      9002.7789      1.0010972      20.802979    
     25700   12850          286.00496     -2064.0769     -2831.3507     -84.904819      9081.3867      0.99243173     20.863351    
     25800   12900          310.79973     -2010.274      -2844.0655      1392.9826      9090.1937      0.99147022     20.870093    
     25900   12950          299.9054      -2011.098      -2815.6629     -3010.2525      9040.7463      0.99689296     20.832182    
     26000   13000          307.35241     -2037.3479     -2861.8912      810.44888      8958.424       1.0060538      20.768759    
     26100   13050          301.94605     -2074.7979     -2884.8373      1600.0814      8894.8665      1.0132425      20.719526    
     26200   13100          294.23288     -2106.2802     -2895.6273      832.3509       8864.1052      1.0167587      20.695613    
     26300   13150          295.04757     -2114.2367     -2905.7694     -306.17         8857.3053      1.0175393      20.69032     
     26400   13200          297.21897     -2107.6431     -2905.0011     -684.06495      8875.2608      1.0154807      20.704292    
     26500   13250          309.23687     -2100.1329     -2929.7317      286.88153      8933.6117      1.008848       20.749566    
     26600   13300          293.25545     -2111.7808     -2898.5057     -677.45399      8982.5424      1.0033525      20.78738     
     26700   13350          288.44469     -2107.1697     -2880.9886     -1346.4271      8961.2432      1.0057373      20.770937    
     26800   13400          310.46147     -2076.3641     -2909.2481     -667.31824      8872.8269      1.0157593      20.702399    
     26900   13450          302.7106      -2058.206      -2870.2965      3125.8022      8810.5074      1.0229441      20.653816    
     27000   13500          299.94093     -2101.5042     -2906.1645     -736.54966      8829.2966      1.0207672      20.668488    
     27100   13550          293.11743     -2137.3449     -2923.6995      1287.0764      8875.0522      1.0155046      20.704129    
     27200   13600          303.27944     -2114.6742     -2928.2908     -1208.3908      8915.7756      1.0108662      20.735748    
     27300   13650          313.42443     -2096.393      -2937.2258      139.56059      8956.9224      1.0062224      20.767598    
     27400   13700          302.31177     -2088.5495     -2899.5701     -1244.3488      8995.9404      1.0018582      20.79771     
     27500   13750          301.54194     -2115.8752     -2924.8305     -2189.6454      9040.6256      0.99690627     20.832089    
     27600   13800          290.28036     -2156.9921     -2935.7356      1187.6454      9057.6992      0.99502712     20.845195    
     27700   13850          290.22306     -2150.9592     -2929.549      -243.37263      9033.9678      0.99764097     20.826974    
     27800   13900          311.2436      -2104.2058     -2939.188       2131.5111      8994.0883      1.0020645      20.796283    
     27900   13950          307.51705     -2073.3135     -2898.2984      2117.6291      8974.4516      1.0042571      20.781137    
     28000   14000          306.89813     -2081.8272     -2905.1517     -3258.1172      9000.0254      1.0014034      20.800858    
     28100   14050          303.61056     -2103.6743     -2918.1792      1505.7422      9060.7046      0.99469707     20.8475      
     28200   14100          298.51802     -2127.3292     -2928.1722     -2070.9797      9129.8968      0.98715863     20.900433    
     28300   14150          286.47178     -2166.0583     -2934.5845     -2701.1343      9152.9443      0.98467291     20.918006    
     28400   14200          295.44765     -2156.3921     -2948.998       964.82142      9126.5336      0.9875224      20.897867    
     28500   14250          297.7294      -2101.4239     -2900.1512     -475.46574      9074.9854      0.99313178     20.858447    
     28600   14300          303.37186     -2079.9978     -2893.8623     -1245.8561      9035.1904      0.99750597     20.827914    
     28700   14350          301.35083     -2085.8379     -2894.2806      1425.8082      9001.5951      1.0012288      20.802067    
     28800   14400          293.15273     -2114.1226     -2900.5719      265.82453      8983.0547      1.0032953      20.787775    
     28900   14450          283.27455     -2137.4336     -2897.3824     -2661.3718      8945.8086      1.0074725      20.759005    
     29000   14500          292.73156     -2095.4015     -2880.721       1490.5906      8858.5458      1.0173968      20.691286    
     29100   14550          299.49859     -2049.1542     -2852.6278      2725.996       8790.7439      1.0252439      20.638361    
     29200   14600          305.44716     -2054.9682     -2874.4002      1378.4798      8810.4953      1.0229455      20.653807    
     29300   14650          299.10654     -2103.6505     -2906.0723     -1553.1902      8912.4342      1.0112452      20.733157    
     29400   14700          300.43745     -2105.597      -2911.5893     -394.59613      9032.1729      0.99783922     20.825595    
     29500   14750          299.09927     -2092.2623     -2894.6646     -3619.018       9103.2513      0.99004807     20.880081    
     29600   14800          306.2082      -2082.8548     -2904.3284     -1203.5415      9106.9678      0.98964403     20.882922    
     29700   14850          303.51956     -2092.1033     -2906.3641      716.16542      9057.7575      0.99502072     20.84524     
     29800   14900          294.86183     -2122.5639     -2913.5982      874.14045      9007.3044      1.0005942      20.806464    
     29900   14950          281.26387     -2155.5154     -2910.0702      636.28628      8988.9274      1.0026398      20.792304    
     30000   15000          288.23554     -2139.522      -2912.7799     -2216.3337      9001.95        1.0011893      20.80234     
     30100   15050          312.32201     -2079.3141     -2917.1894     -637.41894      9023.4406      0.99880486     20.818881    
     30200   15100          297.24574     -2076.864      -2874.2938     -1816.7542      9021.5294      0.99901646     20.817411    
     30300   15150          298.27711     -2082.061      -2882.2577      63.020307      8971.6093      1.0045752      20.778943    
     30400   15200          288.12579     -2114.4805     -2887.444       1520.2601      8862.4078      1.0169535      20.694292    
     30500   15250          294.44812     -2157.8188     -2947.7433      2719.2511      8749.1258      1.0301208      20.60574     
     30600   15300          287.47634     -2169.9076     -2941.1287      1847.5393      8701.9733      1.0357026      20.568656    
     30700   15350          291.28553     -2163.2957     -2944.7359      1214.1109      8767.1018      1.0280086      20.619843    
     30800   15400          295.82085     -2141.4426     -2935.0498      1245.0651      8898.9756      1.0127746      20.722716    
     30900   15450          302.05426     -2109.0511     -2919.3808     -3365.5585      9025.5119      0.99857564     20.820474    
     31000   15500          303.07636     -2099.4022     -2912.474      -1653.7343      9099.5561      0.99045012     20.877255    
     31100   15550          293.61393     -2103.0273     -2890.7139      427.43343      9142.7425      0.98577165     20.910231    
     31200   15600          305.0364      -2092.3714     -2910.7014      944.06085      9172.8421      0.98253695     20.933153    
     31300   15650          302.06862     -2068.4846     -2878.8528     -3002.1051      9199.592       0.97968001     20.953481    
     31400   15700          321.10244     -2043.2584     -2904.6892     -803.28609      9218.3312      0.9776885      20.967699    
     31500   15750          300.91158     -2080.0604     -2887.3246      704.06763      9212.2062      0.97833854     20.963054    
     31600   15800          296.52987     -2129.1424     -2924.6517     -626.28935      9132.7997      0.98684485     20.902648    
     31700   15850          290.16253     -2149.4413     -2927.8688     -541.43636      9005.5616      1.0007878      20.805122    
     31800   15900          298.36213     -2143.3378     -2943.7626      2585.4585      8935.9053      1.0085891      20.751342    
     31900   15950          302.67046     -2117.8786     -2929.8615     -143.08773      8917.5536      1.0106647      20.737126    
     32000   16000          290.55847     -2102.5859     -2882.0755      581.33907      8931.1692      1.0091239      20.747675    
     32100   16050          305.36963     -2060.8048     -2880.0287      500.36672      8978.267       1.0038303      20.784082    
     32200   16100          309.31337     -2044.1081     -2873.912       156.57142      9018.3696      0.99936649     20.814981    
     32300   16150          293.01799     -2076.7627     -2862.8505      1939.2941      9032.1315      0.9978438      20.825563    
     32400   16200          297.12729     -2121.3912     -2918.5032     -1922.4851      9030.2179      0.99805524     20.824092    
     32500   16250          292.19836     -2137.4246     -2921.3136      1425.4738      9033.0202      0.99774563     20.826246    
     32600   16300          302.91342     -2130.4371     -2943.0717      330.0398       9059.7507      0.9948018      20.846769    
     32700   16350          296.33853     -2132.3523     -2927.3483     -874.5717       9114.193       0.9888595      20.888443    
     32800   16400          297.46543     -2137.115      -2935.1342     -1292.2995      9201.7536      0.97944987     20.955122    
     32900   16450          298.81096     -2116.8251     -2918.4539      409.35871      9267.1386      0.97253929     21.004639    
     33000   16500          312.76864     -2081.0402     -2920.1138     -4316.8521      9258.1892      0.97347939     20.997875    
     33100   16550          310.39753     -2080.8551     -2913.5676      989.24497      9178.7241      0.98190732     20.937626    
     33200   16600          284.7443      -2144.8979     -2908.7897      401.1251       9068.8278      0.9938061      20.853729    
     33300   16650          280.34749     -2154.6575     -2906.7539      1365.0412      8982.536       1.0033532      20.787375    
     33400   16700          293.44747     -2128.3787     -2915.6188     -39.759007      8953.4079      1.0066174      20.764882    
     33500   16750          306.21411     -2092.7505     -2914.24        2411.7634      8996.8592      1.0017559      20.798418    
     33600   16800          302.11925     -2089.3029     -2899.807       1005.4718      9093.7981      0.99107724     20.872851    
     33700   16850          301.64062     -2105.6984     -2914.9184     -2209.49        9222.8215      0.97721249     20.971103    
     33800   16900          289.66788     -2110.8273     -2887.9277     -2678.0299      9276.2016      0.9715891      21.011484    
     33900   16950          300.04663     -2095.306      -2900.2499      169.37547      9209.0148      0.97867759     20.960633    
     34000   17000          309.61807     -2076.0623     -2906.6837      62.605327      9088.1819      0.9916897      20.868553    
     34100   17050          313.97165     -2046.6909     -2888.9918      2603.611       9003.3266      1.0010363      20.803401    
     34200   17100          315.4129      -2069.9472     -2916.1145     -2766.8676      8964.5813      1.0053628      20.773516    
     34300   17150          294.51784     -2124.451      -2914.5626      648.89471      8936.4889      1.0085232      20.751794    
     34400   17200          295.32404     -2127.5681     -2919.8425     -2038.4678      8907.2334      1.0118357      20.729124    
     34500   17250          289.71319     -2111.1376     -2888.3596      2628.2928      8888.7964      1.0139344      20.714812    
     34600   17300          300.95034     -2057.8987     -2865.267       1625.6579      8919.7212      1.0104191      20.738807    
     34700   17350          295.66699     -2050.7433     -2843.9377      953.48331      9005.2292      1.0008248      20.804866    
     34800   17400          311.2972      -2067.093      -2902.2191     -2572.3247      9099.7963      0.99042397     20.877439    
     34900   17450          299.60378     -2103.6016     -2907.3573     -885.17438      9118.8736      0.98835193     20.892018    
     35000   17500          293.24935     -2130.1927     -2916.9012     -1069.349       9043.8011      0.99655624     20.834528    
     35100   17550          303.16618     -2136.513      -2949.8257      2197.7915      8945.777       1.0074761      20.758981    
     35200   17600          293.4152      -2133.5504     -2920.7039      260.53748      8910.5804      1.0114556      20.73172     
     35300   17650          295.88449     -2122.2756     -2916.0535     -635.83371      8935.9412      1.008585       20.75137     
     35400   17700          293.67611     -2100.9778     -2888.8312      945.78591      8972.4204      1.0044844      20.779569    
     35500   17750          313.3474      -2084.117      -2924.7431     -2222.3026      9007.5986      1.0005615      20.806691    
     35600   17800          303.76846     -2094.7594     -2909.6878      356.30092      9036.9417      0.99731266     20.829259    
     35700   17850          297.20133     -2113.9727     -2911.2833     -160.16185      9103.8777      0.98997994     20.88056     
     35800   17900          288.09106     -2155.3001     -2928.1703      990.53699      9199.3765      0.97970296     20.953318    
     35900   17950          281.85194     -2177.5602     -2933.6926     -1094.759       9259.5925      0.97333186     20.998936    
     36000   18000          297.5511      -2135.2727     -2933.5217     -177.67781      9271.3685      0.97209559     21.007834    
     36100   18050          292.40634     -2104.6089     -2889.0559     -274.80953      9238.7401      0.97552873     20.983161    
     36200   18100          298.49323     -2091.0892     -2891.8657      901.84117      9165.0372      0.98337368     20.927214    
     36300   18150          310.74029     -2097.7032     -2931.3352     -426.06077      9072.8531      0.99336518     20.856814    
     36400   18200          296.05453     -2141.6676     -2935.9017      1033.4966      9009.2862      1.0003741      20.80799     
     36500   18250          299.4697      -2150.4029     -2953.7989      1134.9305      8995.8014      1.0018736      20.797603    
     36600   18300          298.10007     -2135.4997     -2935.2214     -2277.7644      8997.0116      1.0017389      20.798536    
     36700   18350          312.24149     -2082.8903     -2920.5496      640.10555      9024.5466      0.99868245     20.819732    
     36800   18400          305.57045     -2084.4083     -2904.171      -3428.8059      9058.7725      0.99490923     20.846018    
     36900   18450          291.81295     -2127.4093     -2910.2644     -1076.5557      9038.0279      0.9971928      20.830094    
     37000   18500          296.35816     -2145.857      -2940.9057      699.15983      8967.0729      1.0050834      20.77544     
     37100   18550          286.98261     -2153.1877     -2923.0843      153.61927      8874.3431      1.0155857      20.703578    
     37200   18600          302.02498     -2130.5644     -2940.8156      4388.8744      8838.1554      1.019744       20.675398    
     37300   18650          301.09026     -2085.4661     -2893.2097     -882.57415      8876.0543      1.0153899      20.704909    
     37400   18700          310.40605     -2074.853      -2907.5883     -705.01691      8972.7123      1.0044517      20.779794    
     37500   18750          305.39522     -2095.9731     -2915.2658      1249.5453      9069.2791      0.99375664     20.854075    
     37600   18800          300.18271     -2111.6874     -2916.9963     -1538.0723      9106.4448      0.98970087     20.882522    
     37700   18850          298.14408     -2098.2337     -2898.0734     -2201.5394      9075.2344      0.99310453     20.858638    
     37800   18900          324.6947      -2039.0264     -2910.0943      3642.7254      9032.3033      0.99782481     20.825695    
     37900   18950          302.16005     -2052.6096     -2863.2231     -3227.4013      9027.9892      0.99830163     20.822379    
     38000   19000          297.87581     -2080.4364     -2879.5565     -58.919867      9070.1756      0.99365842     20.854762    
     38100   19050          286.83969     -2086.2528     -2855.7659     -1804.5051      9096.8859      0.99074084     20.875213    
     38200   19100          302.60197     -2073.876      -2885.6751      1176.494       9072.43        0.99341151     20.856489    
     38300   19150          300.05736     -2079.2177     -2884.1902     -744.04745      9022.0489      0.99895894     20.817811    
     38400   19200          289.27283     -2129.7981     -2905.8387     -646.06416      8960.805       1.0057865      20.770598    
     38500   19250          291.5105      -2143.1645     -2925.2082      3979.9731      8912.5346      1.0112338      20.733235    
     38600   19300          294.45734     -2114.2123     -2904.1615     -247.83901      8919.3092      1.0104657      20.738487    
     38700   19350          309.65172     -2090.9161     -2921.6278      1434.9571      8995.715       1.0018833      20.797537    
     38800   19400          304.143       -2123.7868     -2939.72        821.42002      9109.2736      0.98939353     20.884684    
     38900   19450          282.52903     -2167.5059     -2925.4548     -3997.1575      9165.0405      0.98337332     20.927216    
     39000   19500          306.61929     -2148.1265     -2970.703       621.56232      9142.1552      0.98583498     20.909783    
     39100   19550          304.07136     -2118.952      -2934.6931     -192.86138      9079.6614      0.99262031     20.862029    
     39200   19600          305.10422     -2125.7327     -2944.2447     -309.13237      9046.7691      0.99622929     20.836807    
     39300   19650          287.33102     -2154.9838     -2925.815       881.61165      9015.7272      0.99965939     20.812947    
     39400   19700          298.35374     -2145.9601     -2946.3624     -2132.1545      8935.9636      1.0085825      20.751387    
     39500   19750          312.42786     -2093.8041     -2931.9634      4057.772       8840.4484      1.0194796      20.677186    
     39600   19800          304.54355     -2097.953      -2914.9608     -328.43933      8806.8132      1.0233732      20.650929    
     39700   19850          289.72935     -2134.4952     -2911.7606      347.81583      8819.5514      1.0218951      20.660881    
     39800   19900          294.97223     -2129.9026     -2921.2331      1462.0918      8852.3117      1.0181133      20.686431    
     39900   19950          295.15346     -2100.6704     -2892.4871     -801.31977      8905.9653      1.0119797      20.72814     
     40000   20000          299.96692     -2077.9585     -2882.6885     -1413.9437      8936.2861      1.0085461      20.751637    
     40100   20050          315.40404     -2048.7762     -2894.9198     -67.955724      8933.3924      1.0088728      20.749397    
     40200   20100          328.02696     -2002.469      -2882.4764     -2772.2519      8909.9234      1.0115302      20.73121     
     40300   20150          308.10136     -2063.5044     -2890.0569      4630.295       8907.4474      1.0118113      20.72929     
     40400   20200          300.82908     -2106.632      -2913.675       295.49685      8955.6086      1.0063701      20.766583    
     40500   20250          278.16835     -2129.9373     -2876.1876     -2194.8882      9007.74        1.0005458      20.806799    
     40600   20300          297.47009     -2120.3872     -2918.4189      973.80626      9024.2336      0.99871709     20.819491    
     40700   20350          308.75677     -2086.2167     -2914.5275      2306.5283      9021.3957      0.99903126     20.817308    
     40800   20400          317.47408     -2060.881      -2912.5779     -671.56412      9025.5743      0.99856874     20.820522    
     40900   20450          296.95404     -2062.4033     -2859.0505     -1668.5093      9049.2141      0.99596012     20.838684    
     41000   20500          301.51248     -2077.989      -2886.8653     -1458.562       9051.6795      0.99568886     20.840576    
     41100   20550          303.40362     -2100.8311     -2914.7808      2630.4664      8987.5296      1.0027957      20.791227    
     41200   20600          304.64755     -2130.4381     -2947.7249     -1882.8629      8897.4794      1.0129449      20.721554    
     41300   20650          282.80665     -2169.0413     -2927.7349      2220.8616      8813.7055      1.0225729      20.656315    
     41400   20700          280.31735     -2170.0942     -2922.1097     -528.75905      8784.1352      1.0260152      20.633188    
     41500   20750          297.6701      -2096.1501     -2894.7183      1063.0347      8824.856       1.0212808      20.665022    
     41600   20800          308.38798     -2078.813      -2906.1344     -272.0706       8899.9985      1.0126582      20.72351     
     41700   20850          300.17415     -2076.0464     -2881.3323     -1576.417       8961.1379      1.0057491      20.770856    
     41800   20900          303.0337      -2096.5819     -2909.5392      1818.8308      8971.9072      1.0045419      20.779173    
     41900   20950          281.7723      -2143.9617     -2899.8804     -111.12735      8953.9297      1.0065588      20.765285    
     42000   21000          301.22113     -2149.6551     -2957.7498     -473.64497      8945.6642      1.0074888      20.758893    
     42100   21050          295.25183     -2147.3826     -2939.4633     -2032.0573      8969.1121      1.0048549      20.777015    
     42200   21100          301.10847     -2112.2478     -2920.0402      2514.4752      9030.5326      0.99802046     20.824334    
     42300   21150          304.2061      -2086.8746     -2902.9771     -2763.7745      9086.5589      0.99186682     20.867311    
     42400   21200          311.64016     -2075.0644     -2911.1105      1669.3213      9107.9416      0.98953822     20.883666    
     42500   21250          307.41839     -2096.1754     -2920.8956      1487.0171      9141.3851      0.98591803     20.909196    
     42600   21300          291.57767     -2145.8935     -2928.1174     -1658.0923      9185.7873      0.9811523      20.942995    
     42700   21350          296.6081      -2149.2949     -2945.014      -2144.3934      9176.4992      0.98214538     20.935934    
     42800   21400          305.00426     -2124.4433     -2942.687      -83.563504      9099.0867      0.99050121     20.876896    
     42900   21450          315.25653     -2056.9297     -2902.6775     -532.63023      8984.271       1.0031594      20.788714    
     43000   21500          306.03204     -2051.1795     -2872.1806      5.7962868      8885.4622      1.0143149      20.712221    
     43100   21550          293.243       -2079.444      -2866.1356      1440.3181      8834.1555      1.0202058      20.672278    
     43200   21600          298.2299      -2082.0527     -2882.1228      341.73698      8840.8879      1.0194289      20.677528    
     43300   21650          301.27918     -2073.2099     -2881.4603     -508.87599      8882.5613      1.0146461      20.709967    
     43400   21700          305.41968     -2079.0169     -2898.3752     -1360.0108      8939.4668      1.0081872      20.754098    
     43500   21750          296.92703     -2138.476      -2935.0508     -2365.3061      8996.7235      1.001771       20.798314    
     43600   21800          285.16823     -2154.0347     -2919.0638      1915.7735      9012.9934      0.9999626      20.810844    
     43700   21850          294.21176     -2115.5018     -2904.7922     -2493.1017      8967.5719      1.0050275      20.775826    
     43800   21900          299.6135      -2084.7174     -2888.4992      976.50968      8881.0265      1.0148215      20.708774    
     43900   21950          309.41231     -2071.4903     -2901.5597      1315.9198      8805.7503      1.0234967      20.650098    
     44000   22000          301.59894     -2090.619      -2899.7272     -1651.0263      8780.1467      1.0264813      20.630065    
     44100   22050          285.583       -2120.3752     -2886.517       1090.3268      8811.6869      1.0228072      20.654738    
     44200   22100          292.69454     -2115.3228     -2900.5429     -1951.4466      8854.0445      1.0179141      20.687781    
     44300   22150          291.97241     -2061.1014     -2844.3843      1723.5834      8873.0243      1.0157367      20.702552    
     44400   22200          302.46067     -2036.3514     -2847.7714     -605.32523      8875.0938      1.0154998      20.704162    
     44500   22250          301.44584     -2063.4144     -2872.1119      2021.329       8847.3746      1.0186814      20.682584    
     44600   22300          300.46714     -2086.9855     -2893.0574      2738.6121      8841.9794      1.019303       20.678379    
     44700   22350          296.72259     -2093.5729     -2889.5992     -2784.4321      8895.8412      1.0131314      20.720283    
     44800   22400          299.79778     -2091.8747     -2896.1509      3762.9077      8956.1487      1.0063094      20.767       
     44900   22450          310.01801     -2080.5603     -2912.2546     -2684.1515      8973.6644      1.0043452      20.780529    
     45000   22500          296.81104     -2112.6756     -2908.9392     -2155.3668      8943.7221      1.0077076      20.757391    
     45100   22550          280.63133     -2144.7673     -2897.6252      192.19358      8904.414       1.012156       20.726936    
     45200   22600          290.08968     -2117.8077     -2896.0397      2539.8902      8865.8628      1.0165572      20.696981    
     45300   22650          313.76773     -2077.9137     -2919.6675      485.04543      8868.7512      1.0162261      20.699228    
     45400   22700          307.58148     -2087.2785     -2912.4363      365.8727       8921.7706      1.010187       20.740395    
     45500   22750          291.13162     -2121.0393     -2902.0666     -2681.2579      8959.2659      1.0059592      20.769409    
     45600   22800          284.44794     -2133.3122     -2896.409       102.94537      8939.3501      1.0082004      20.754008    
     45700   22850          309.25878     -2074.7678     -2904.4254      20.686715      8894.7442      1.0132564      20.719431    
     45800   22900          295.06352     -2054.8853     -2846.4607      750.77751      8870.1182      1.0160695      20.700292    
     45900   22950          300.65687     -2067.7041     -2874.285       817.27616      8880.1814      1.014918       20.708117    
     46000   23000          296.15714     -2096.9484     -2891.4578     -1767.699       8911.0883      1.0113979      20.732114    
     46100   23050          296.0354      -2127.8142     -2921.997      -822.92883      8930.348       1.0092167      20.747039    
     46200   23100          286.10156     -2174.9961     -2942.529      -1082.03        8883.5752      1.0145303      20.710755    
     46300   23150          296.97983     -2168.8385     -2965.5549      542.91202      8774.5512      1.0271359      20.625681    
     46400   23200          308.15212     -2104.4836     -2931.1723      3371.9676      8697.6729      1.0362147      20.565267    
     46500   23250          299.27218     -2111.8865     -2914.7527      1435.3183      8732.9482      1.0320291      20.593032    
     46600   23300          286.79442     -2141.6266     -2911.0184     -2788.9176      8805.6464      1.0235088      20.650017    
     46700   23350          284.9533      -2129.943      -2894.3955     -582.18891      8850.8422      1.0182823      20.685286    
     46800   23400          297.68081     -2078.3188     -2876.9158     -2473.1415      8872.1143      1.0158409      20.701845    
     46900   23450          299.12604     -2061.8646     -2864.3387      4957.1764      8877.5772      1.0152158      20.706093    
     47000   23500          302.98716     -2063.2017     -2876.0342     -504.00517      8883.0322      1.0145923      20.710333    
     47100   23550          280.40308     -2105.9217     -2858.1672      576.04648      8896.3904      1.0130689      20.720709    
     47200   23600          288.8166      -2122.2243     -2897.041       169.34246      8906.6527      1.0119016      20.728673    
     47300   23650          295.99927     -2076.3595     -2870.4453     -2198.7858      8871.8272      1.0158737      20.701621    
     47400   23700          302.50184     -2047.0901     -2858.6206      849.82726      8835.8441      1.0200108      20.673595    
     47500   23750          302.51927     -2066.0258     -2877.603       297.55037      8838.3526      1.0197213      20.675552    
     47600   23800          286.79389     -2086.9791     -2856.3694      1027.6758      8865.9386      1.0165485      20.69704     
     47700   23850          305.45613     -2070.0128     -2889.4688     -706.89645      8911.7315      1.0113249      20.732613    
     47800   23900          305.87152     -2007.5246     -2828.095      -1083.6292      8933.6524      1.0088434      20.749598    
     47900   23950          308.49933     -2012.4738     -2840.0939     -433.41401      8954.7172      1.0064702      20.765894    
     48000   24000          290.27146     -2056.5409     -2835.2605      36.258938      8947.63        1.0072674      20.760414    
     48100   24050          300.9551      -2069.2473     -2876.6283     -417.68968      8895.0646      1.0132199      20.71968     
     48200   24100          302.05759     -2081.3873     -2891.7259     -172.1284       8847.984       1.0186113      20.683059    
     48300   24150          303.94812     -2082.9499     -2898.3603     -2865.7516      8845.2076      1.018931       20.680896    
     48400   24200          305.22463     -2086.1873     -2905.0223      4011.8596      8843.8914      1.0190827      20.67987     
     48500   24250          289.79865     -2099.5137     -2876.965       342.289        8846.0746      1.0188312      20.681571    
     48600   24300          295.58316     -2107.2548     -2900.2243      1963.419       8861.1712      1.0170954      20.69333     
     48700   24350          288.86052     -2126.8227     -2901.7572      492.07584      8872.7589      1.0157671      20.702346    
     48800   24400          290.81399     -2115.2342     -2895.4093      97.462327      8873.3186      1.015703       20.702781    
     48900   24450          298.57504     -2085.4069     -2886.4029      1091.9973      8855.7195      1.0177215      20.689085    
     49000   24500          305.4605      -2080.6707     -2900.1385      812.4918       8869.399       1.0161519      20.699732    
     49100   24550          292.58227     -2127.2187     -2912.1376     -482.5181       8894.9139      1.0132371      20.719563    
     49200   24600          284.29496     -2139.3583     -2902.0447     -2753.8187      8881.176       1.0148044      20.70889     
     49300   24650          288.09485     -2107.6868     -2880.5672      3204.1827      8825.0452      1.0212589      20.66517     
     49400   24700          310.07667     -2071.0701     -2902.9218     -520.52118      8780.2712      1.0264667      20.630162    
     49500   24750          317.43465     -2077.058      -2928.6491      75.440899      8767.0322      1.0280168      20.619788    
     49600   24800          306.35761     -2100.852      -2922.7265      565.32838      8801.4189      1.0240004      20.646712    
     49700   24850          286.0631      -2122.6029     -2890.0327     -191.92617      8878.5563      1.0151038      20.706854    
     49800   24900          294.37044     -2101.9878     -2891.7039      134.04008      8958.4059      1.0060558      20.768745    
     49900   24950          302.24384     -2068.7047     -2879.5431     -1355.8971      8987.3397      1.0028169      20.79108     
     50000   25000          301.92055     -2090.9918     -2900.9628      133.4748       8984.378       1.0031475      20.788796    
     50100   25050          287.96908     -2151.7116     -2924.2546     -671.40606      8978.372       1.0038186      20.784163    
     50200   25100          289.60832     -2155.0356     -2931.9763      599.8606       8944.8098      1.007585       20.758232    
     50300   25150          287.91388     -2127.6095     -2900.0044     -816.39775      8894.6528      1.0132668      20.71936     
     50400   25200          300.74368     -2095.7513     -2902.5651      1845.0684      8872.3428      1.0158147      20.702022    
     50500   25250          298.884       -2092.8286     -2894.6534      710.6613       8918.1678      1.0105951      20.737603    
     50600   25300          306.43279     -2101.5419     -2923.6181     -2087.2663      9004.392       1.0009178      20.804221    
     50700   25350          288.22098     -2142.6319     -2915.8507      1097.6639      9048.1452      0.99607778     20.837863    
     50800   25400          281.4775      -2188.3406     -2943.4685     -1576.3254      8998.6216      1.0015597      20.799776    
     50900   25450          296.38261     -2157.5106     -2952.6248     -730.68274      8917.59        1.0106605      20.737155    
     51000   25500          292.06272     -2138.6176     -2922.1427      1948.4692      8874.8769      1.0155247      20.703993    
     51100   25550          297.56714     -2123.5567     -2921.8487     -732.00662      8869.3794      1.0161541      20.699717    
     51200   25600          302.94773     -2103.6541     -2916.3808     -493.80093      8856.2043      1.0176658      20.689463    
     51300   25650          315.98207     -2060.3115     -2908.0058      1852.6678      8852.1039      1.0181372      20.686269    
     51400   25700          314.44865     -2073.9578     -2917.5383     -2425.4506      8885.3191      1.0143312      20.71211     
     51500   25750          284.52623     -2126.0408     -2889.3476     -469.01171      8918.4547      1.0105626      20.737825    
     51600   25800          295.64851     -2119.435      -2912.5798      1379.6823      8903.9206      1.0122121      20.726554    
     51700   25850          293.50078     -2089.0897     -2876.4727     -291.46088      8864.0868      1.0167608      20.695599    
     51800   25900          306.46417     -2063.6593     -2885.8196      917.84127      8851.864       1.0181648      20.686082    
     51900   25950          300.58929     -2079.139      -2885.5386      755.63084      8873.1185      1.0157259      20.702626    
     52000   26000          300.03847     -2105.7435     -2910.6654     -536.2373       8913.8044      1.0110898      20.73422     
     52100   26050          294.5834      -2124.3543     -2914.6418      728.11026      8926.7725      1.0096209      20.74427     
     52200   26100          295.55224     -2133.9849     -2926.8715     -236.2724       8915.2919      1.0109211      20.735373    
     52300   26150          286.68294     -2130.811      -2899.9036      1850.1451      8922.1639      1.0101424      20.7407      
     52400   26200          293.47865     -2091.662      -2878.9857      117.6344       8935.3163      1.0086555      20.750886    
     52500   26250          298.72525     -2057.482      -2858.8809     -23.319417      8955.352       1.0063989      20.766384    
     52600   26300          291.71388     -2062.8197     -2845.409      -71.814403      8978.8043      1.0037702      20.784496    
     52700   26350          305.22732     -2074.4168     -2893.259      -2450.8654      8955.9618      1.0063304      20.766856    
     52800   26400          291.65553     -2136.9983     -2919.4311     -1788.8466      8895.83        1.0131327      20.720274    
     52900   26450          300.45201     -2138.2151     -2944.2464      1305.0119      8825.6572      1.0211881      20.665648    
     53000   26500          308.85602     -2108.5856     -2937.1627     -1274.9963      8757.5927      1.0291249      20.612385    
     53100   26550          306.82511     -2097.3241     -2920.4527      2255.9933      8764.7001      1.0282903      20.61796     
     53200   26600          293.74895     -2097.9456     -2885.9944     -1074.7696      8852.4484      1.0180976      20.686537    
     53300   26650          288.97927     -2086.7282     -2861.9813      96.975214      8963.1976      1.005518       20.772447    
     53400   26700          309.17153     -2027.3337     -2856.7572      70.94401       9045.3269      0.99638813     20.8357      
     53500   26750          304.24053     -2037.4061     -2853.601      -1592.0444      9073.698       0.99327269     20.857461    
     53600   26800          307.51038     -2067.8834     -2892.8504      2172.974       9061.4542      0.99461479     20.848075    
     53700   26850          285.11911     -2092.2066     -2857.1039     -2175.7731      9024.6979      0.99866572     20.819848    
     53800   26900          306.25981     -2096.5064     -2918.1185      1956.0628      8987.3207      1.002819       20.791065    
     53900   26950          303.85394     -2111.6728     -2926.8305      2510.3872      8985.0858      1.0030685      20.789342    
     54000   27000          288.08404     -2146.6525     -2919.5039     -733.17729      9009.9381      1.0003017      20.808492    
     54100   27050          292.79534     -2150.3976     -2935.8882     -732.17716      9025.3498      0.99859358     20.820349    
     54200   27100          306.33379     -2119.5523     -2941.3628      1741.986       9013.8206      0.99987083     20.81148     
     54300   27150          312.8304      -2067.3602     -2906.5994     -1809.9258      9024.6067      0.9986758      20.819778    
     54400   27200          307.75999     -2063.2068     -2888.8435     -957.43032      9036.466       0.99736516     20.828894    
     54500   27250          304.96716     -2075.8396     -2893.9839      2294.8152      9028.3798      0.99825845     20.822679    
     54600   27300          299.49683     -2089.235      -2892.7039     -1569.9817      9011.7198      1.0001039      20.809863    
     54700   27350          292.68236     -2083.3915     -2868.5789      1972.5533      8995.5644      1.0019         20.79742     
     54800   27400          301.87435     -2086.8267     -2896.6738      319.0277       9013.2019      0.99993947     20.811004    
     54900   27450          281.72379     -2128.3262     -2884.1148     -1683.5739      9047.4571      0.99615353     20.837335    
     55000   27500          293.85273     -2141.0019     -2929.3291      1528.6121      9044.9119      0.99643384     20.835381    
     55100   27550          296.51418     -2098.692      -2894.1592     -870.66996      8985.8548      1.0029826      20.789935    
     55200   27600          304.57932     -2074.5738     -2891.6776     -172.85979      8916.5534      1.010778       20.736351    
     55300   27650          296.8273      -2093.667      -2889.9743      317.91581      8880.12        1.0149251      20.708069    
     55400   27700          293.03614     -2112.9772     -2899.1137      947.79795      8895.8288      1.0131328      20.720273    
     55500   27750          296.70343     -2117.4427     -2913.4176      1735.2123      8940.7694      1.0080404      20.755106    
     55600   27800          298.44459     -2068.5875     -2869.2335     -28.595215      8991.6202      1.0023395      20.79438     
     55700   27850          302.19735     -2041.5587     -2852.2723      1094.3917      9047.1         0.99619285     20.837061    
     55800   27900          300.44537     -2047.2947     -2853.3082     -1513.0804      9097.2134      0.99070517     20.875464    
     55900   27950          290.49955     -2084.2388     -2863.5704     -323.63064      9123.7127      0.98782773     20.895713    
     56000   28000          287.42745     -2119.8878     -2890.9778     -450.36915      9111.6997      0.98913009     20.886538    
     56100   28050          291.89978     -2106.8001     -2889.8881      1252.5037      9063.2152      0.99442154     20.849426    
     56200   28100          308.89952     -2093.7475     -2922.4412      25.374262      9025.826       0.9985409      20.820716    
     56300   28150          288.42024     -2114.9724     -2888.7257     -165.27982      8984.668       1.0031151      20.78902     
     56400   28200          292.53788     -2116.2912     -2901.091       235.30571      8936.5493      1.0085164      20.75184     
     56500   28250          304.23379     -2084.6575     -2900.8343      3531.4672      8917.8303      1.0106333      20.737341    
     56600   28300          297.34891     -2065.3497     -2863.0562     -1949.4338      8938.3094      1.0083178      20.753203    
     56700   28350          292.39974     -2078.8779     -2863.3072     -493.10217      8965.6411      1.0052439      20.774334    
     56800   28400          287.76639     -2106.5145     -2878.5138      1350.3085      8969.6995      1.0047891      20.777468    
     56900   28450          292.43302     -2105.7716     -2890.2901     -1615.7248      8947.3939      1.007294       20.760231    
     57000   28500          302.35784     -2068.9276     -2880.0717     -221.31245      8940.6453      1.0080543      20.75501     
     57100   28550          308.61601     -2037.3715     -2865.3046      3513.6686      8981.864       1.0034283      20.786857    
     57200   28600          305.95286     -2041.2112     -2861.9998     -1939.1374      9060.5259      0.99471669     20.847363    
     57300   28650          300.62582     -2071.3819     -2877.8795     -2491.5565      9098.6599      0.99054767     20.87657     
     57400   28700          285.13206     -2091.4746     -2856.4066     -859.77715      9049.3509      0.99594506     20.838789    
     57500   28750          295.95172     -2082.903      -2876.8613      1832.6038      8946.9448      1.0073446      20.759884    
     57600   28800          306.94963     -2054.9276     -2878.3903      2656.7829      8860.6236      1.0171582      20.692903    
     57700   28850          299.2029      -2084.0076     -2886.6879      482.89374      8842.8494      1.0192027      20.679058    
     57800   28900          294.1119      -2114.1634     -2903.1859      626.39206      8895.8868      1.0131262      20.720318    
     57900   28950          309.31008     -2092.8239     -2922.619      -232.70307      8973.3877      1.0043761      20.780316    
     58000   29000          302.15753     -2040.9469     -2851.5537     -2290.9804      9033.885       0.99765011     20.826911    
     58100   29050          308.53769     -2016.1345     -2843.8575     -1862.5507      9076.6052      0.99295454     20.859688    
[...]
    189200   94600          301.70818     -2095.6508     -2905.0521      1337.6017      8788.4318      1.0255136      20.636552    
    189300   94650          297.86301     -2097.1894     -2896.2752     -1570.2344      8828.9946      1.0208021      20.668252    
    189400   94700          292.54257     -2143.5362     -2928.3487     -263.44121      8887.0104      1.0141382      20.713424    
    189500   94750          280.06609     -2164.3428     -2915.6842     -2867.8552      8886.983       1.0141413      20.713403    
    189600   94800          303.6869      -2134.5352     -2949.2448      870.87419      8789.0865      1.0254372      20.637064    
    189700   94850          307.75849     -2111.5564     -2937.1891     -844.0065       8653.6623      1.0414846      20.530522    
    189800   94900          298.79441     -2133.1435     -2934.7279      1993.2471      8575.3707      1.0509932      20.468419    
    189900   94950          296.89486     -2185.3959     -2981.8844      755.54555      8607.4023      1.047082       20.493873    
    190000   95000          292.29445     -2187.4835     -2971.6303     -261.62887      8712.7305      1.0344239      20.577128    
    190100   95050          301.81398     -2159.6315     -2969.3166     -842.76389      8802.1591      1.0239143      20.647291    
    190200   95100          295.73065     -2128.6047     -2921.9699     -1230.5134      8843.9585      1.0190749      20.679922    
    190300   95150          300.2173      -2128.3121     -2933.7137      2354.1102      8846.9003      1.0187361      20.682215    
    190400   95200          298.60544     -2137.3592     -2938.4367     -3675.7517      8811.2661      1.022856       20.654409    
    190500   95250          297.79618     -2146.0699     -2944.9763      332.04682      8770.3428      1.0276287      20.622383    
    190600   95300          289.14552     -2192.8822     -2968.5813      1244.8351      8745.9108      1.0304995      20.603216    
    190700   95350          293.84166     -2230.2538     -3018.5514     -1373.4259      8720.7538      1.0334722      20.583442    
    190800   95400          284.67387     -2207.3418     -2971.0447      3636.5214      8686.8921      1.0375007      20.556767    
    190900   95450          301.10087     -2161.0502     -2968.8223     -1169.1792      8659.1735      1.0408218      20.534879    
    191000   95500          299.14244     -2151.8556     -2954.3737      280.12277      8632.9886      1.0439787      20.514159    
    191100   95550          285.19004     -2147.2873     -2912.3749      707.71211      8601.6052      1.0477877      20.489271    
    191200   95600          307.31002     -2141.8554     -2966.285       3108.1787      8574.1312      1.0511451      20.467433    
    191300   95650          300.27417     -2136.5673     -2942.1215      622.59051      8594.6272      1.0486384      20.483729    
    191400   95700          293.89009     -2151.5259     -2939.9534     -1273.6921      8648.2566      1.0421356      20.526246    
    191500   95750          284.56778     -2152.7725     -2916.1908      92.135815      8711.4145      1.0345801      20.576092    
    191600   95800          300.08874     -2091.907      -2896.9638     -1879.4535      8772.6569      1.0273577      20.624197    
    191700   95850          296.42334     -2083.154      -2878.3775      1148.4824      8814.5263      1.0224777      20.656956    
    191800   95900          289.98845     -2090.4755     -2868.4359      521.32536      8825.4221      1.0212153      20.665464    
    191900   95950          299.98567     -2096.861      -2901.6412     -363.07791      8817.7343      1.0221057      20.659462    
    192000   96000          295.11841     -2120.3804     -2912.1031      3190.3262      8800.8595      1.0240655      20.646274    
    192100   96050          297.70296     -2148.5599     -2947.2163     -474.97825      8779.9905      1.0264996      20.629942    
    192200   96100          300.09825     -2150.0571     -2955.1394      393.15364      8763.9062      1.0283835      20.617337    
    192300   96150          299.37453     -2109.1829     -2912.3236     -1641.2831      8764.1978      1.0283493      20.617566    
    192400   96200          313.12755     -2077.1094     -2917.1457      652.64754      8813.8362      1.0225577      20.656417    
    192500   96250          296.97324     -2094.225      -2890.9238     -265.62725      8908.1345      1.0117333      20.729823    
    192600   96300          291.02787     -2116.5835     -2897.3324     -2662.0378      8996.4442      1.0018021      20.798098    
    192700   96350          283.67043     -2137.8951     -2898.906      -1080.8986      9033.6612      0.99767483     20.826739    
    192800   96400          305.04925     -2118.6819     -2937.0464      993.7418       9016.6747      0.99955435     20.813676    
    192900   96450          300.08802     -2081.3253     -2886.3802      486.80196      8968.3501      1.0049403      20.776426    
    193000   96500          300.72263     -2063.9043     -2870.6617      979.40854      8960.1763      1.005857       20.770113    
    193100   96550          301.59516     -2100.6316     -2909.7297      1633.674       9002.5627      1.0011212      20.802812    
    193200   96600          289.83039     -2120.8996     -2898.436      -2033.8901      9052.4163      0.99560781     20.841142    
    193300   96650          288.02215     -2118.0579     -2890.7433     -285.11854      9065.2434      0.99419905     20.850981    
    193400   96700          302.04187     -2084.4489     -2894.7454     -1302.201       9008.9313      1.0004135      20.807717    
    193500   96750          312.53179     -2069.3254     -2907.7635     -504.86516      8905.2818      1.0120574      20.72761     
    193600   96800          304.38305     -2095.7885     -2912.3657     -375.8807       8835.8729      1.0200075      20.673618    
    193700   96850          288.92489     -2128.0114     -2903.1186      458.8957       8796.8282      1.0245348      20.643122    
    193800   96900          300.004       -2135.3881     -2940.2176      3879.8816      8750.3221      1.02998        20.606679    
    193900   96950          307.54581     -2118.1999     -2943.262       580.17673      8744.7434      1.030637       20.602299    
    194000   97000          303.26141     -2060.8852     -2874.4534     -2490.3596      8809.1759      1.0230987      20.652776    
    194100   97050          303.25317     -2075.0101     -2888.5561      2192.9303      8894.9089      1.0132376      20.719559    
    194200   97100          294.37802     -2112.9616     -2902.6981     -1508.9055      8955.5408      1.0063777      20.76653     
    194300   97150          296.50483     -2126.8187     -2922.2608     -1987.4531      8967.9187      1.0049886      20.776093    
    194400   97200          293.7059      -2113.382      -2901.3154      2410.3225      8937.4627      1.0084133      20.752547    
    194500   97250          290.88075     -2101.1078     -2881.4621     -1330.0563      8897.3233      1.0129627      20.721433    
    194600   97300          293.4746      -2095.4873     -2882.8002      1505.4118      8887.3426      1.0141003      20.713682    
    194700   97350          305.51372     -2116.5997     -2936.2102     -1260.7239      8893.453       1.0134035      20.718428    
    194800   97400          286.85727     -2177.1014     -2946.6618      139.36479      8882.0892      1.0147001      20.7096      
    194900   97450          291.35286     -2175.0058     -2956.6266     -220.67363      8846.2351      1.0188127      20.681696    
    195000   97500          300.95102     -2146.9683     -2954.3383     -2535.8454      8778.9199      1.0266247      20.629104    
    195100   97550          297.60754     -2115.3548     -2913.7552      5729.1479      8732.7024      1.0320581      20.592839    
    195200   97600          306.21777     -2082.4308     -2903.9301     -1434.0866      8777.9721      1.0267356      20.628361    
    195300   97650          314.66029     -2040.2624     -2884.4107      1509.1657      8891.9607      1.0135736      20.717269    
    195400   97700          301.07906     -2058.1937     -2865.9073     -2614.516       8996.565       1.0017886      20.798192    
    195500   97750          296.91802     -2101.1267     -2897.6773     -1302.1387      9023.4326      0.99880575     20.818875    
    195600   97800          292.69451     -2107.0338     -2892.2538      57.135191      8939.0105      1.0082387      20.753745    
    195700   97850          304.86811     -2108.0415     -2925.92        566.46532      8815.1225      1.0224085      20.657422    
    195800   97900          294.91803     -2116.2378     -2907.423      -1486.2078      8732.9262      1.0320317      20.593015    
    195900   97950          302.05622     -2112.2944     -2922.6294      2203.1941      8729.5338      1.0324327      20.590348    
    196000   98000          305.36766     -2086.0689     -2905.2876      3996.0618      8779.9879      1.0264999      20.62994     
    196100   98050          306.18076     -2074.7005     -2896.1005     -2772.6858      8857.4447      1.0175233      20.690428    
    196200   98100          295.41459     -2114.8503     -2907.3676     -1567.5496      8904.5993      1.012135       20.72708     
    196300   98150          291.6541      -2121.881      -2904.3099     -1909.878       8884.2582      1.0144523      20.711286    
    196400   98200          308.66971     -2097.6622     -2925.7394      1120.6887      8802.0105      1.0239316      20.647174    
    196500   98250          302.33905     -2064.562      -2875.6557      692.16123      8742.9407      1.0308495      20.600883    
    196600   98300          304.98182     -2071.9754     -2890.1589     -1073.7676      8729.86        1.0323941      20.590604    
    196700   98350          291.38673     -2129.0619     -2910.7735     -312.67226      8758.371       1.0290334      20.612996    
    196800   98400          291.24563     -2136.3251     -2917.6582      907.64981      8839.5568      1.0195824      20.676491    
    196900   98450          293.91955     -2103.3496     -2891.8561      180.48027      8934.0716      1.0087961      20.749922    
    197000   98500          310.05734     -2066.8701     -2898.6699      1335.5392      9007.0738      1.0006198      20.806286    
    197100   98550          304.12943     -2068.6856     -2884.5824     -644.18277      9056.7453      0.99513193     20.844463    
    197200   98600          300.73716     -2102.0255     -2908.8218     -266.6916       9064.402       0.99429133     20.850336    
    197300   98650          295.67957     -2124.7569     -2917.9851     -1334.708       9052.7145      0.99557501     20.841371    
    197400   98700          295.76745     -2145.8442     -2939.3082      33.2806        8999.1447      1.0015014      20.800179    
    197500   98750          300.50585     -2128.8229     -2934.9987     -527.40563      8915.925       1.0108493      20.735864    
    197600   98800          311.04497     -2084.6981     -2919.1475      2120.3358      8857.9815      1.0174616      20.690846    
    197700   98850          296.96538     -2104.0418     -2900.7195      2648.5504      8859.8097      1.0172517      20.69227     
    197800   98900          305.16312     -2141.6171     -2960.2871     -1793.9911      8910.4837      1.0114666      20.731645    
    197900   98950          287.62744     -2167.671      -2939.2975     -1901.745       8948.2252      1.0072004      20.760874    
    198000   99000          285.74563     -2135.6659     -2902.244      -270.74778      8960.6019      1.0058093      20.770441    
    198100   99050          292.40318     -2106.5242     -2890.9628      860.908        8955.4731      1.0063853      20.766478    
    198200   99100          294.80108     -2096.5448     -2887.4162     -1233.881       8946.1437      1.0074348      20.759264    
    198300   99150          300.31457     -2098.3755     -2904.0381      3433.0282      8928.5466      1.0094203      20.745644    
    198400   99200          292.49184     -2152.6458     -2937.3221     -1922.4225      8921.2802      1.0102425      20.740015    
    198500   99250          288.63511     -2180.2949     -2954.6247      800.48788      8914.6068      1.0109987      20.734842    
    198600   99300          299.16711     -2151.5111     -2954.0954     -679.6384       8911.0463      1.0114027      20.732081    
    198700   99350          308.80463     -2116.7221     -2945.1613      210.31016      8923.2457      1.01002        20.741538    
    198800   99400          305.17203     -2127.1364     -2945.8302     -212.37504      8983.9442      1.0031959      20.788461    
    198900   99450          298.96002     -2152.8949     -2954.9236      1384.1924      9083.0902      0.99224561     20.864655    
    199000   99500          277.54816     -2140.9394     -2885.5259     -1278.8988      9159.0195      0.98401978     20.922633    
    199100   99550          292.7697      -2098.9818     -2884.4036      381.52168      9155.1428      0.98443646     20.91968     
    199200   99600          304.72731     -2087.7048     -2905.2056      1324.1079      9092.4644      0.99122262     20.87183     
    199300   99650          284.82628     -2108.7484     -2872.8601     -1984.3693      9019.6514      0.99922447     20.815967    
    199400   99700          299.6296      -2135.6385     -2939.4636      586.29293      8962.3757      1.0056102      20.771812    
    199500   99750          279.93489     -2188.3363     -2939.3258     -836.42232      8896.0629      1.0131062      20.720455    
    199600   99800          293.60789     -2185.8601     -2973.5305      1620.0782      8827.1073      1.0210204      20.666779    
    199700   99850          307.51876     -2142.2698     -2967.2594     -517.83627      8744.7342      1.0306381      20.602292    
    199800   99900          302.97545     -2145.6508     -2958.4518      2534.0599      8686.9056      1.0374991      20.556777    
    199900   99950          294.09726     -2168.2404     -2957.2236     -1628.0596      8718.1034      1.0337864      20.581357    
    200000   100000         288.15308     -2194.3248     -2967.3615      764.61839      8811.8779      1.022785       20.654887    
Loop time of 74862.3 on 8 procs for 200000 steps with 901 atoms

Performance: 0.115 ns/day, 207.951 hours/ns, 2.672 timesteps/s, 2.407 katom-step/s
96.0% CPU use with 8 MPI tasks x 1 OpenMP threads

MPI task timing breakdown:
Section |  min time  |  avg time  |  max time  |%varavg| %total
---------------------------------------------------------------
Pair    | 73792      | 73853      | 73888      |   9.9 | 98.65
Bond    | 0.047996   | 0.057461   | 0.072891   |   3.5 |  0.00
Neigh   | 16.924     | 17.426     | 17.873     |   8.1 |  0.02
Comm    | 61.493     | 95.978     | 157.57     | 274.9 |  0.13
Output  | 116.6      | 116.61     | 116.63     |   0.1 |  0.16
Modify  | 777.27     | 778.37     | 779.37     |   2.2 |  1.04
Other   |            | 0.7691     |            |       |  0.00

Nlocal:        112.625 ave         119 max         103 min
Histogram: 1 0 0 0 1 2 1 0 2 1
Nghost:         3361.5 ave        3400 max        3297 min
Histogram: 1 0 0 0 3 0 0 0 2 2
Neighs:          31954 ave       35220 max       29658 min
Histogram: 1 1 1 1 1 2 0 0 0 1

Total # of neighbors = 255632
Ave neighs/atom = 283.72031
Ave special neighs/atom = 1.9977802
Neighbor list builds = 20000
Dangerous builds = 0
System init for write_data ...
Generated 0 of 3 mixed pair_coeff terms from geometric mixing rule
WARNING: Bonds are defined but no bond style is set (../force.cpp:197)
WARNING: Likewise 1-2 special neighbor interactions != 1.0 (../force.cpp:199)
WARNING: Angles are defined but no angle style is set (../force.cpp:202)
WARNING: Likewise 1-3 special neighbor interactions != 1.0 (../force.cpp:204)

[MBX] Total MBX fix/pair time= 74862.522066 seconds
[MBX] Timing Summary
[MBX] kernel                      tmin          tavg          tmax         count   %total
[MBX] -----------------------------------------------------------------------------------
[MBX] INIT                :        447.14        449.63        451.97     20001     0.60%
[MBX] UPDATE_XYZ          :        27.301        27.683        28.196    200001     0.04%
[MBX] ACCUMULATE_F        :        41.511        42.014        42.439   1000005     0.06%
[MBX] E1B                 :         644.8           648        651.21    200001     0.87%
[MBX] E2B_LOCAL           :             0             0             0         0     0.00%
[MBX] E2B_GHOST           :        2078.8          2137        2186.3    200001     2.92%
[MBX] E3B_LOCAL           :             0             0             0         0     0.00%
[MBX] E3B_GHOST           :         17213         18855         20532    200001    27.43%
[MBX] E4B_LOCAL           :             0             0             0         0     0.00%
[MBX] E4B_GHOST           :        623.02        625.26        627.03    200001     0.84%
[MBX] DISP                :        7591.8        7646.7        7708.8    200001    10.30%
[MBX] DISP_PME            :        3122.1        4782.5        6424.2    200001     8.58%
[MBX] BUCK                :     0.0031799      0.003208     0.0033153    200001     0.00%
[MBX] ELE                 :         39066         39107         39130    200001    52.27%
[MBX] INIT_FULL           :             0             0             0         0     0.00%
[MBX] UPDATE_XYZ_FULL     :             0             0             0         0     0.00%
[MBX] ACCUMULATE_F_FULL   :             0             0             0         0     0.00%
[MBX] INIT_LOCAL          :        272.71        274.21        277.08     20001     0.37%
[MBX] UPDATE_XYZ_LOCAL    :        8.7146        8.8215        9.0314    200001     0.01%
[MBX] ACCUMULATE_F_LOCAL  :        17.087        17.244        17.385    400002     0.02%


[MBX] Electrostatics Summary
[MBX] kernel                      tmin          tavg          tmax         count   %total
[MBX] -----------------------------------------------------------------------------------
[MBX] ELE_PERMDIP_REAL    :        2686.6        2699.7          2733    200001     3.65%
[MBX] ELE_PERMDIP_PME     :        998.29        1073.4        1224.5    200001     1.64%
[MBX] ELE_DIPFIELD_REAL   :         10545         10663         10727   4552441    14.33%
[MBX] ELE_DIPFIELD_PME    :         15783         15857         15984   4552441    21.35%
[MBX] ELE_GRAD_REAL       :        1428.2        1440.5        1453.1    200001     1.94%
[MBX] ELE_GRAD_PME        :        1880.5        1892.6        1908.9    200001     2.55%
[MBX] ELE_GRAD_FIN        :        70.975        71.297        71.914    200001     0.10%
[MBX] ELE_PME_SETUP       :        6950.7        7116.6        7301.7   4952443     9.75%
[MBX] ELE_PME_C           :        862.68        864.01        865.01    400002     1.16%
[MBX] ELE_PME_D           :        9900.9        9947.2        9980.6   4752442    13.33%
[MBX] ELE_PME_E           :        525.61        528.06        530.37    200001     0.71%
[MBX] DISP_PME_SETUP      :        2435.3        4106.6        5767.9    200001     7.70%
[MBX] DISP_PME_E          :        534.25        553.99        565.14    200001     0.75%
[MBX] ELE_COMM_REVFOR     :        891.89        917.91        930.08   4752442     1.24%
[MBX] ELE_COMM_REVSET     :        48.816        48.899        48.988     20001     0.07%
[MBX] ELE_COMM_REV        :         437.3        463.76        475.73   4732441     0.64%
[MBX] ELE_COMM_FORSET     :        86.714        86.808        86.892     20001     0.12%
[MBX] ELE_COMM_FOR        :        302.86        303.89        304.56   4732441     0.41%
Total wall time: 20:47:42
