LAMMPS data file via write_data, version 17 Apr 2024, timestep = 200000, units = real

769 atoms
3 atom types
512 bonds
1 bond types
256 angles
1 angle types

-0.24053391574876315 19.367437442157026 xlo xhi
-0.24053391574876315 19.367437442157026 ylo yhi
-0.24053391574876315 19.367437442157026 zlo zhi

Masses

1 15.9994
2 1.008
3 22.99

Atoms # full

721 241 2 0.417 2.493226606019513 0.24364552497484582 0.4930741394960805 1 0 1
551 185 1 -0.834 4.8291785087372165 3.358090413787787 2.5530372618489987 -1 0 1
174 59 2 0.417 7.766266224073023 3.2133521172140593 1.8557947559213415 0 1 0
719 241 1 -0.834 3.3793691837368334 0.2426970988904908 0.9546802169717352 1 0 1
175 59 2 0.417 8.805779931096545 2.140425236584185 2.2624904246988033 0 1 0
92 32 1 -0.834 0.9444470099486257 1.2642172044912905 0.17608405217897538 0 0 0
553 185 2 0.417 5.393674293911774 3.9577352151112697 3.157574261971048 -1 0 1
552 185 2 0.417 4.661459860492444 2.5867325634283005 3.0946792304982793 -1 0 1
58 20 2 0.417 6.430683947203272 1.332531570665671 2.3817666744693704 0 0 0
282 95 2 0.417 2.9224656773769992 2.382137435045082 4.112604367696906 0 0 0
56 20 1 -0.834 6.2231112621284845 0.39291883851704035 2.6908134168494433 0 0 0
57 20 2 0.417 5.4258429415296066 0.40772010262689484 3.239047393431195 0 0 0
110 38 1 -0.834 3.6144966315400717 0.8414495234107786 3.478213086812629 1 0 0
112 38 2 0.417 3.3192716463235445 0.6240970574994424 2.548165378825961 1 0 0
283 95 2 0.417 2.285590032620688 3.8434837073526413 4.252618545363613 0 0 0
687 230 2 0.417 3.750173646415749 4.132490851306155 1.0918943171298834 0 0 1
173 59 1 -0.834 7.884029872025563 2.3947930770240142 2.3293377820491425 0 1 0
312 105 2 0.417 0.5693338295953202 1.7320508168653437 3.381972017158482 0 0 1
744 249 2 0.417 7.736148100106825 2.161305637141595 4.051004455802196 0 1 1
686 230 1 -0.834 3.2560979315367415 4.288037938997889 0.2392084690608215 0 0 1
111 38 2 0.417 2.928412333450371 0.42419906132243745 4.072560919012266 1 0 0
688 230 2 0.417 3.31380771270172 3.3978309740835626 -0.16125940930162566 0 0 1
348 117 2 0.417 4.832847509801424 1.222268858830763 -0.22709241176295625 0 1 1
311 105 1 -0.834 0.05297259978213531 0.9662679753173229 3.1018348822219504 0 0 1
281 95 1 -0.834 2.2553118228482663 2.928932049812022 4.52703545001461 0 0 0
94 32 2 0.417 0.5419225766314552 1.3050989773644777 1.0445645615583339 0 0 0
617 207 1 -0.834 6.943273853428124 4.322471305238165 0.697574815608482 1 0 1
618 207 2 0.417 6.255969787276988 3.7172451497586145 0.36644323831877645 1 0 1
598 200 2 0.417 10.846101675710365 1.4287469369500767 3.4352305869721036 0 0 1
5 3 1 -0.834 15.738850150639548 2.347182233407756 2.585239077121761 -1 0 0
239 81 1 -0.834 13.187439606541234 0.9158374601826371 0.8648060631323131 0 0 0
664 222 2 0.417 12.886182330642875 2.623338840454519 1.3401066083587838 0 0 1
99 34 2 0.417 16.278798675898837 0.8863232497031965 3.3701042324360464 -1 0 -1
663 222 2 0.417 12.561899098142467 3.172993883515639 2.699837245654459 0 0 1
234 79 2 0.417 18.961053626359032 4.44311436725744 1.6776376634887582 0 0 0
241 81 2 0.417 13.817637546712758 0.5033952532672086 0.19208556077379674 0 0 0
383 129 1 -0.834 11.60394028695335 2.979327712862689 4.393096739790591 0 0 0
240 81 2 0.417 13.517108843179848 0.41984210366658703 1.6575252490041328 0 0 0
196 66 2 0.417 17.01479198731279 2.691069512707871 1.4922662824658268 0 1 0
7 3 2 0.417 15.729264662927877 2.8553198376173854 3.4463569392712374 -1 0 0
662 222 1 -0.834 13.048286733466583 3.3993233440176036 1.8798561658538322 0 0 1
194 66 1 -0.834 17.849525941942346 2.6330211563149954 1.0434362156361605 0 1 0
6 3 2 0.417 14.78562177260284 2.46564547348188 2.3275159407082424 -1 0 0
596 200 1 -0.834 10.386102133722197 0.9343316254935077 2.7840979483492307 0 0 1
313 105 2 0.417 18.71647839245188 1.0978857585493693 3.177826404179606 -1 0 1
597 200 2 0.417 9.704735333079212 0.36733755380674094 3.1409049718622057 0 0 1
195 66 2 0.417 17.780661269161328 3.1506122245381665 0.246394326581114 0 1 0
98 34 1 -0.834 17.04564965871922 0.5555220349313273 3.8754241274057994 -1 0 -1
378 127 2 0.417 10.630245029666309 0.8959972865915415 0.12193198829285207 0 1 0
323 109 1 -0.834 10.46020686282675 3.9897705838692294 -0.1516547360543038 0 1 0
286 96 2 0.417 17.504513537828103 0.994814844873882 -0.09906752017161174 0 0 0
222 75 2 0.417 15.255921896803349 4.57217315934944 4.38266492468985 0 0 0
384 129 2 0.417 10.679921001890255 3.2540559831877873 4.389534984416937 0 0 0
632 212 1 -0.834 6.290640561499243 6.910151757804905 2.218289427549223 0 0 1
365 123 1 -0.834 1.9048843917625131 5.606164590187511 3.69381663430627 0 0 0
367 123 2 0.417 2.375636690758673 5.949784882447426 2.9180064327868074 0 0 0
634 212 2 0.417 6.469831815011251 7.757383162917176 1.7826867901803474 0 0 1
252 85 2 0.417 2.947774388483538 7.792329217129197 1.8923933566914481 0 0 1
251 85 1 -0.834 3.351603009390196 6.9252496144999744 1.747582356268362 0 0 1
507 170 2 0.417 8.666355416474826 8.529056296972811 0.4926203193512615 0 0 1
700 234 2 0.417 0.520459791959686 9.281697495086718 1.0323772122993675 0 0 1
766 256 2 0.417 1.985669065180518 5.376200705425787 0.03613047559272098 1 0 1
506 170 1 -0.834 8.853360280266543 7.665736102629726 0.17640489501415652 0 0 1
253 85 2 0.417 4.331898196215083 7.060298127129404 1.7523964706494535 0 0 1
510 171 2 0.417 9.159893099063645 5.254325799924348 3.361687292433158 -1 0 1
633 212 2 0.417 6.071793522072699 7.039948773491685 3.1487917143340214 0 0 1
366 123 2 0.417 0.9352720504070795 5.771570596425999 3.545932717422568 0 0 0
765 256 2 0.417 1.5911890413558156 6.830839745140309 0.20234565104048047 1 0 1
698 234 1 -0.834 1.414657536289931 8.846740301119786 1.0600745013519226 0 0 1
619 207 2 0.417 6.536212487558842 5.113129552341042 1.0540794222050032 1 0 1
508 170 2 0.417 9.252408515500315 7.036263008946422 0.8699010101515519 0 0 1
509 171 1 -0.834 8.893654140285893 4.907543429107984 4.252468497180008 -1 0 1
764 256 1 -0.834 1.227139332350594 6.0240801016022525 -0.155642241869219 1 0 1
338 114 1 -0.834 5.49040851072898 9.433863950254215 1.6762472448420083 1 0 0
699 234 2 0.417 2.0774243726853725 9.435794099684646 0.7046275119613318 0 0 1
235 79 2 0.417 0.21284723275906853 5.716214473489148 1.2420535384716092 1 0 0
67 23 2 0.417 7.106672778165523 9.07163287262634 3.734261781942657 0 0 0
66 23 2 0.417 8.46576452431909 8.74847553363498 4.375674717060025 0 0 0
65 23 1 -0.834 7.648734450852557 9.316822320404944 4.462320302576655 0 0 0
339 114 2 0.417 5.0405341863901905 9.278756190385687 0.8127416213173806 1 0 0
742 248 2 0.417 6.981218153532908 4.753991773804047 4.430808444107018 0 0 1
214 72 2 0.417 2.976767633692683 8.325839479299576 4.6408594209135465 0 0 0
438 147 2 0.417 10.717707414082003 6.1371688174356605 2.224438308497224 1 0 1
160 54 2 0.417 16.831189389913142 7.9022858078748595 2.5799926904962325 -1 0 0
451 151 2 0.417 14.319220216160687 4.875784423546168 2.4826131132969396 -1 0 1
292 98 2 0.417 12.881502744842109 6.870254872290667 3.544205566305302 -1 0 0
233 79 1 -0.834 19.01684364995756 5.363073333004102 1.7440033015380922 0 0 0
439 147 2 0.417 10.23485393798561 5.114731462294519 1.252163679271245 1 0 1
450 151 2 0.417 15.25285017168048 5.973985146598805 2.8143246182337442 -1 0 1
449 151 1 -0.834 14.424556312870793 5.55982624181422 3.145225088222371 -1 0 1
444 149 2 0.417 15.919010769433807 5.97359150495767 0.5121810483826996 -1 0 1
159 54 2 0.417 17.695648967568548 6.612390380108098 2.16933147330948 -1 0 0
158 54 1 -0.834 16.813229743888108 7.052585040650031 2.1906705775149042 -1 0 0
359 121 1 -0.834 15.134198948429516 8.160132092611116 4.435900338826846 0 0 0
291 98 2 0.417 12.416083159513118 7.968676793069905 2.630576597585582 -1 0 0
55 19 2 0.417 14.173843630564766 8.77504070476447 0.4179230528042074 0 -1 0
290 98 1 -0.834 12.083561060263726 7.3034040109795715 3.2512207332829286 -1 0 0
54 19 2 0.417 15.189305115652687 8.041934500733 1.0968357031854667 0 -1 0
650 218 1 -0.834 12.369091498725437 8.678150485745165 0.3067587101961954 0 0 1
443 149 1 -0.834 15.205731533547713 5.359586075845053 0.2589098450307242 -1 0 1
53 19 1 -0.834 15.100889230247532 8.807601431743683 0.5528852234950681 0 -1 0
437 147 1 -0.834 9.909092371850127 5.899159014758496 1.7647696773965436 1 0 1
504 169 2 0.417 11.17819162426319 8.14350501832611 4.59603017902569 0 0 0
445 149 2 0.417 15.644760404013585 4.66469003952319 -0.2044581649288304 -1 0 1
560 188 1 -0.834 1.4195126971226033 10.714176243663644 3.8743994543964986 1 -1 0
532 178 2 0.417 4.394729076026455 9.730462736305563 3.029509714947589 0 0 0
530 178 1 -0.834 3.856090990833212 9.819675716309122 3.839021722483441 0 0 0
690 231 2 0.417 6.921778441674282 11.939811360279997 2.6147730533509472 0 0 0
340 114 2 0.417 5.835275053971404 10.356165383404347 1.6106747416398741 1 0 0
460 154 2 0.417 3.2955000771977616 12.686545839426682 1.5723004831610732 0 0 1
458 154 1 -0.834 2.8033932601607523 11.838422824515682 1.634490997100714 0 0 1
142 48 2 0.417 1.3998307098420937 12.464207920861035 0.5826144763446085 1 0 0
16 6 2 0.417 9.03527062247509 10.953417783570606 3.580417535194481 -1 -1 0
140 48 1 -0.834 0.7634283565049544 12.880559288775393 -0.11931889968312008 1 0 0
689 231 1 -0.834 6.7656158623744815 11.85972266888826 1.681762858619964 0 0 0
209 71 1 -0.834 4.106982743174123 13.091607642559293 4.550954048585421 0 0 0
691 231 2 0.417 7.595845710859534 11.477028720924489 1.3037510280551712 0 0 0
14 6 1 -0.834 9.387924730319108 11.688858956655194 3.0343236168796603 -1 -1 0
497 167 1 -0.834 8.897129872730176 10.522155252553834 0.522095815710199 -1 0 1
15 6 2 0.417 9.103966944320513 12.527558131891412 3.4012484306277626 -1 -1 0
531 178 2 0.417 2.9391318615299005 9.996274566742725 3.6150296115049168 0 0 0
114 39 2 0.417 6.420277342223962 13.825058537816838 1.1767729043692072 0 0 0
459 154 2 0.417 2.593375425177011 11.698813417522487 2.555684208727788 0 0 1
210 71 2 0.417 5.084647701856565 13.238453528985854 4.615102918014963 0 0 0
561 188 2 0.417 0.7626863068696912 10.104493899963439 3.5352285008583775 1 -1 0
562 188 2 0.417 0.9378329418436702 11.234502334397458 4.524680228002008 1 -1 0
28 10 2 0.417 9.55840012922104 13.769464079776128 1.2143466986595937 0 0 0
498 167 2 0.417 9.561361281989464 10.945175339765038 1.0224900650852509 -1 0 1
538 180 2 0.417 16.184695350530536 11.00575527876354 2.712689485222954 0 0 1
133 45 2 0.417 17.04117061141119 13.704522531394568 0.4907880519644793 -1 0 0
26 10 1 -0.834 10.155709755711904 13.250078075464202 0.6119454792329351 0 0 0
760 254 2 0.417 17.736833136787634 10.98189286566315 0.8520318486595659 -1 0 1
182 62 1 -0.834 17.712530884365197 13.123015443520098 3.574379653530309 0 0 0
121 41 2 0.417 13.238328647174502 12.568067567420698 1.6044147649441398 0 0 0
536 180 1 -0.834 16.483998517093173 10.37977962092533 2.0842165351783524 0 0 1
120 41 2 0.417 14.04644905197881 13.31669052293548 2.7168196123833277 0 0 0
389 131 1 -0.834 15.632796710349947 13.226711461841745 -0.03409278643993577 -1 -1 1
139 47 2 0.417 12.897091956810803 11.516591169557078 -0.07620094669886923 0 0 0
183 62 2 0.417 17.788353254759674 13.35250105198184 2.5903046285973153 0 0 0
131 45 1 -0.834 17.92240202970209 14.000009439180115 0.920096585659059 -1 0 0
132 45 2 0.417 18.74808535794915 13.591655227468827 0.6877247958363725 -1 0 0
373 125 2 0.417 16.00044878432038 13.451678890105494 4.1212965582619265 0 0 0
125 43 1 -0.834 11.965056880633798 11.927281388545158 3.7946643932229556 0 0 0
137 47 1 -0.834 12.276242199857329 11.354116136267162 0.6532277055964978 0 0 0
126 43 2 0.417 11.042617344955067 11.75455410520627 3.545028074461032 0 0 0
138 47 2 0.417 11.511239516774838 11.885474570800843 0.4662119451056337 0 0 0
537 180 2 0.417 15.76378669014446 9.909953794532996 1.64640870445816 0 0 1
758 254 1 -0.834 18.168803641476934 10.892850225283086 -0.008586314135450357 -1 0 1
119 41 1 -0.834 13.524285696454946 13.454674340738176 1.868876031019858 0 0 0
390 131 2 0.417 14.879415556975257 13.241245658568461 0.6607499290545855 -1 -1 1
652 218 2 0.417 12.135485131003316 9.61859002184555 0.403975228877417 0 0 1
127 43 2 0.417 12.449061365661333 11.646782097148861 3.028621665471348 0 0 0
184 62 2 0.417 18.218044883409043 13.781265557371926 4.0300044989139305 0 0 0
371 125 1 -0.834 15.03170062953068 13.261191029467867 4.341378331842586 0 0 0
759 254 2 0.417 18.805264113901604 11.656941312147982 0.01087395400698904 -1 0 1
544 182 2 0.417 13.152731525359663 14.367359102565956 0.053140806985782885 -1 1 1
483 162 2 0.417 0.5504868670577021 16.077981562784743 2.639641378359925 1 0 1
181 61 2 0.417 4.477548688453282 16.70941591086877 2.1651007516542724 1 0 0
157 53 2 0.417 6.093345136560783 19.11813321753258 0.6856824889368439 1 0 1
428 144 1 -0.834 5.747243388315821 16.399960959838378 3.4506164045593595 1 -1 1
52 18 2 0.417 8.577728276662233 17.4817482456016 1.8098597002097154 0 -1 0
452 152 1 -0.834 9.255686340900239 14.578843482287276 3.724664642748799 -1 0 0
430 144 2 0.417 5.890629107843259 15.580243894379311 2.9399483488589144 1 -1 1
490 164 2 0.417 2.713195413089902 16.005320270228243 4.423932891928825 0 0 0
180 61 2 0.417 2.9842672991956314 16.635694843855468 2.203580786026036 1 0 0
358 120 2 0.417 8.762340797350129 15.477694233685739 2.122916082854402 0 0 1
356 120 1 -0.834 8.82777556209081 15.850309384544506 1.2143531454586376 0 0 1
489 164 2 0.417 1.587961761128824 17.007338841714738 4.127693266036799 0 0 0
732 245 2 0.417 0.02231771084877754 17.61918415378298 0.6392593897945655 0 0 1
50 18 1 -0.834 8.483640028324896 18.27132998068944 2.347386118562418 0 -1 0
357 120 2 0.417 7.989738468283051 15.513394572522852 0.8467109463630285 0 0 1
488 164 1 -0.834 1.802227920309214 16.058136477145702 3.957111013474262 0 0 0
51 18 2 0.417 7.5378456310539415 18.53912740661863 2.3220500915507416 0 -1 0
179 61 1 -0.834 3.732585429892335 16.949562157235835 1.579183353183191 1 0 0
429 144 2 0.417 5.294556284236366 16.11145315640736 4.283506727199515 1 -1 1
156 53 2 0.417 6.97434165093923 18.11503820900711 -0.17101520386683294 1 0 1
482 162 1 -0.834 -0.183703215584439 16.145649325514857 1.9742325820979096 1 0 1
642 215 2 0.417 8.392426286091661 18.282617277966523 4.265421222031061 0 -1 1
720 241 2 0.417 3.669109132663214 18.92588071235675 0.9221779877939003 1 -1 1
693 232 2 0.417 0.834751786013977 19.355674159353367 4.230707782675563 0 0 1
454 152 2 0.417 8.934254777070567 14.869621772631966 4.564606121944414 -1 0 0
113 39 1 -0.834 5.924674030161136 14.633639138553374 1.2376306852276566 0 0 0
115 39 2 0.417 5.634185838887772 14.835027644688997 0.3171920526731836 0 0 0
520 174 2 0.417 12.508324263005338 18.261810587447414 1.682381478666641 0 0 0
162 55 2 0.417 17.06168969864381 18.07042821520385 0.5355527033967097 -1 0 0
712 238 2 0.417 11.979553087767798 14.477174631156972 2.326802229979946 1 0 0
161 55 1 -0.834 16.591772666532023 17.40896924566227 1.1160575300617144 -1 0 0
711 238 2 0.417 11.844292530353277 16.11356355512581 2.4282070119371952 1 0 0
163 55 2 0.417 17.422752225292342 17.051884916307767 1.5288161037217483 -1 0 0
236 80 1 -0.834 14.654276354193724 18.73179317690881 2.4182812032599994 0 -1 1
237 80 2 0.417 14.304725437992097 18.35473799414643 3.2424405853367504 0 -1 1
453 152 2 0.417 10.181632648350291 14.798042086907794 3.6678673127341868 -1 0 0
519 174 2 0.417 11.275461276468889 18.90152979312968 2.2984314383927704 0 0 0
710 238 1 -0.834 11.657425145077259 15.28320435824814 2.844354638449695 1 0 0
238 80 2 0.417 15.375410221546607 18.176792533332424 2.1385282718535485 0 -1 1
518 174 1 -0.834 11.791486972308608 18.076814267645148 2.2480256309625166 0 0 0
484 162 2 0.417 19.007385586914975 15.296787323182736 1.7136257628791385 0 0 1
363 122 2 0.417 12.61718158332204 15.193614620500423 4.586660563446684 -1 0 0
336 113 2 0.417 11.250849256160986 17.45206532708303 -0.1939265349264837 0 0 0
100 34 2 0.417 17.049097288874474 19.1952457603374 3.933417173131174 -1 -1 -1
217 73 2 0.417 18.20178805798627 16.963934122462852 4.09675477502918 -1 -1 0
215 73 1 -0.834 17.62950390788267 17.68546762484184 4.410663183792008 -1 -1 0
105 36 2 0.417 15.797425739395102 16.3288867826464 -0.04707261097428109 0 0 1
733 245 2 0.417 19.215915008667356 18.68926970744149 -0.22247951187853232 -1 0 1
745 249 2 0.417 8.477620511605565 2.571212776364695 5.287775737956652 0 1 1
500 168 1 -0.834 0.28102272575945497 2.2841430435295154 6.49869251335878 0 1 1
75 26 2 0.417 1.4440127374432292 2.155349146059236 8.90223171729824 0 1 0
501 168 2 0.417 0.9907150239802145 2.38990237350367 5.844563069553976 0 1 1
653 219 1 -0.834 5.379955244417837 1.554184031152685 6.135082107831051 0 0 1
46 16 2 0.417 8.429718249044111 0.5070215983143688 8.426153221667546 0 0 0
301 101 2 0.417 3.5038680994861995 4.423314776701675 7.1302099066420155 1 0 -1
188 64 1 -0.834 5.055321384904433 2.559585150125654 9.254813777203166 0 1 -1
299 101 1 -0.834 3.7385482369059573 3.4813134854261154 6.865323116055495 1 0 -1
654 219 2 0.417 4.910983188893156 2.2811940422619843 6.530951137767835 0 0 1
34 12 2 0.417 5.984780830621285 4.239570979511354 8.132666718513875 1 0 -1
643 215 2 0.417 8.309438830854248 0.05200417152436487 4.844422975775607 0 0 1
606 203 2 0.417 8.436632729970961 3.7825721190542536 7.721401487610001 0 0 0
190 64 2 0.417 4.436158210338773 2.556925820378182 8.482836729304003 0 1 -1
45 16 2 0.417 9.385840580760291 1.5746011093323982 8.016444185665138 0 0 0
655 219 2 0.417 6.232780394400678 1.9244446009418223 5.775209257686555 0 0 1
502 168 2 0.417 -0.1623344876280371 3.126901632642735 6.533042671059692 0 1 1
44 16 1 -0.834 9.374971398336335 0.6634456377041305 8.321360561802392 0 0 0
300 101 2 0.417 3.2626456345741475 3.3267574146400474 6.0532667673996166 1 0 -1
605 203 1 -0.834 9.292986836000814 3.303244627573084 7.51621938584896 0 0 0
32 12 1 -0.834 6.7407702300877865 4.54587514909409 7.634869085458068 1 0 -1
743 249 1 -0.834 7.813919389391879 1.9778156309979704 4.968695794576356 0 1 1
12 5 2 0.417 5.927540468441966 0.4849765520395788 7.284190915536687 0 0 0
11 5 1 -0.834 6.208342539664212 -0.09811849677852938 8.088228220659651 0 0 0
275 93 1 -0.834 16.49559590866398 3.703954902263557 8.694955116426785 -1 0 0
185 63 1 -0.834 13.581899507596143 2.9479391882526174 6.481155516150161 0 1 0
276 93 2 0.417 15.827279192702616 4.3990935747444855 8.912343150009127 -1 0 0
331 111 2 0.417 17.463306894746633 4.511199651534479 7.1659988805246675 0 0 0
187 63 2 0.417 13.489889100550673 1.939438523353695 6.528898111561436 0 1 0
277 93 2 0.417 16.037841179043834 2.9418220155126327 8.421509281024717 -1 0 0
723 242 2 0.417 19.011751400312615 0.4396778086349018 6.848844159292432 -1 1 1
647 217 1 -0.834 13.230313958460378 0.1594171510811826 6.428244192725289 0 0 1
270 91 2 0.417 16.46873576024417 0.029017532604270035 7.528952223537307 0 0 0
269 91 1 -0.834 16.002080236207323 0.735856840813377 6.980690289508758 0 0 0
607 203 2 0.417 10.051167398387538 3.866068976020217 7.400611484731296 0 0 0
186 63 2 0.417 14.344569454424594 3.1064998447344054 5.934674306138931 0 1 0
649 217 2 0.417 13.34257103323133 -0.12424459815998208 7.318329094654542 0 0 1
221 75 1 -0.834 15.609717639650762 3.9112412653994078 5.009332719667242 0 0 0
385 129 2 0.417 12.05778118233479 3.1532104223125597 5.274149012160962 0 0 0
123 42 2 0.417 12.513149491610694 4.267664042294459 7.016255729134921 -1 1 0
271 91 2 0.417 16.44916172976973 0.885623368069921 6.153490470698485 0 0 0
223 75 2 0.417 16.548747659691962 4.134623591722423 5.416935973878012 0 0 0
648 217 2 0.417 12.315403135286973 -0.07811876635514692 6.21640370384914 0 0 1
431 145 1 -0.834 5.577933030222942 7.301500441453761 5.350818727906546 0 -1 0
511 171 2 0.417 9.212132356662716 5.609384805097399 4.84453570038588 -1 0 1
395 133 1 -0.834 3.137015337857597 6.084981592795798 7.9089176953010565 0 0 0
495 166 2 0.417 -0.15585771604087467 9.048036977090435 9.241014209234828 0 0 0
213 72 2 0.417 2.41184661041722 6.938779917013655 4.993766112876821 0 0 0
455 153 1 -0.834 8.376398856141805 7.674243772299557 8.665128619709307 0 0 0
212 72 1 -0.834 2.8493169998204344 7.7306488584137965 5.399502364630643 0 0 0
494 166 1 -0.834 0.5540684149781888 8.526535785450491 8.877784826370657 0 0 0
457 153 2 0.417 8.55244779080788 7.126862177001108 7.825509034529006 0 0 0
433 145 2 0.417 5.990837111897441 8.110407857691037 5.715124482997918 0 -1 0
432 145 2 0.417 4.62263816461598 7.470150702221275 5.41323074771551 0 -1 0
627 210 2 0.417 3.741991472060327 9.269490828541022 8.711522094876132 0 0 1
628 210 2 0.417 2.2649092988775714 9.434938415462403 8.250850454168447 0 0 1
456 153 2 0.417 7.499762504339596 7.3812938115463025 8.846401387398918 0 0 0
259 87 2 0.417 9.11166064666905 9.481952707588713 9.043494656234762 0 0 0
741 248 2 0.417 6.046420874386576 5.776766562807893 5.017941538104865 0 0 1
397 133 2 0.417 2.316006970105936 5.909608988273855 8.392243793777432 0 0 0
396 133 2 0.417 2.893330153687933 6.847205216960888 7.319043533761373 0 0 0
684 229 2 0.417 4.780400850424943 6.788498113882261 8.830095388479155 0 0 0
496 166 2 0.417 0.7970746455225803 7.835608638645816 9.499533923333571 0 0 0
683 229 1 -0.834 5.386949595261855 7.381461235950582 9.266773040807415 0 0 0
740 248 1 -0.834 6.0497392698322 4.853023627084022 4.7030768930309215 0 0 1
610 204 2 0.417 0.2562465265220326 7.49042378491832 7.318043263492204 1 -1 0
33 12 2 0.417 6.4476949666674 4.671457636741083 6.723846983668276 1 0 -1
608 204 1 -0.834 -0.0648649959095399 6.984672215810575 6.5499509214404785 1 -1 0
481 161 2 0.417 13.696439764473697 7.306082373542339 8.93468421161656 0 0 0
206 70 1 -0.834 16.94914267170214 7.8229323228857695 8.285213573381556 -1 0 1
503 169 1 -0.834 10.509139945667478 8.555312738595466 5.128944992732724 0 0 0
514 172 2 0.417 9.868743477821711 7.345499652204531 6.120103865184704 0 1 0
513 172 2 0.417 10.45737130330331 6.096758707079745 6.799117303329257 0 1 0
208 70 2 0.417 16.933789661079427 7.671748400755421 9.236899363155736 -1 0 1
330 111 2 0.417 18.452996153472426 5.545400982799219 6.368864631946876 0 0 0
609 204 2 0.417 19.031110774983276 7.661297006122299 6.175288177179846 0 -1 0
505 169 2 0.417 10.922439328018696 9.116343105622306 5.749262613156006 0 0 0
512 172 1 -0.834 9.641991605403518 6.512427370214564 6.511664022905817 0 1 0
479 161 1 -0.834 13.098214304032302 7.801844683631995 8.377776080172238 0 0 0
474 159 2 0.417 15.714671070973454 6.833804265082064 7.132924338458731 0 0 0
480 161 2 0.417 13.180790813067475 7.398647380107325 7.537773863616339 0 0 0
473 159 1 -0.834 14.997002349972556 6.45361909779132 6.637626374617484 0 0 0
124 42 2 0.417 12.202612897469868 5.009484468528709 8.190547158930423 -1 1 0
475 159 2 0.417 15.470480998183287 5.671235601174502 6.429318050529638 0 0 0
207 70 2 0.417 17.76989706811919 7.53968024424766 8.020329077622103 -1 0 1
360 121 2 0.417 15.290688752899124 7.584033485665345 5.2353133667969125 0 0 0
88 30 2 0.417 12.17994105921686 9.164833103476237 7.517224890254487 0 0 0
361 121 2 0.417 14.510461253216718 8.864812244699058 4.7540972640319366 0 0 0
572 192 1 -0.834 18.057756332186592 8.89035181449543 5.017750826551472 0 0 0
122 42 1 -0.834 11.81862654442735 4.8386770019149274 7.335223694279098 -1 1 0
329 111 1 -0.834 17.887705360941855 4.707737997703566 6.295429057950061 0 0 0
574 192 2 0.417 17.15199964866674 8.733710064800311 4.741256163913877 0 0 0
134 46 1 -0.834 1.2181207662027247 14.251113511795152 7.755206363779733 0 0 0
640 214 2 0.417 2.842208435810077 13.009584336083014 9.483519490135649 0 0 0
557 187 1 -0.834 6.559344092156158 11.584018608114674 8.904776767207096 0 0 0
135 46 2 0.417 0.36153883510538465 14.349621684146982 7.308147348835233 0 0 0
558 187 2 0.417 7.53676260827963 11.79000993975432 8.812053647281978 0 0 0
559 187 2 0.417 6.13116610143539 11.354445696022168 8.048072122373664 0 0 0
261 88 2 0.417 8.524577746270175 14.204812518380692 7.015059240437787 0 0 0
136 46 2 0.417 1.3879814895789988 13.332569318786893 7.936945861517083 0 0 0
638 214 1 -0.834 2.217397906032188 12.294220526751344 9.31641126114914 0 0 0
64 22 2 0.417 4.317118227092106 10.470921540952174 6.9902220732495035 0 0 0
626 210 1 -0.834 3.13289259465342 9.837458860464809 8.225392929716797 0 0 1
211 71 2 0.417 4.023139966239551 12.104517791562413 4.72757586560098 0 0 0
63 22 2 0.417 4.699902537738788 10.480057940147084 5.552296495125079 0 0 0
554 186 1 -0.834 9.385225557818538 13.046792976649373 7.82759197953029 0 1 0
62 22 1 -0.834 5.075955816564125 10.492940385858597 6.438246316139256 0 0 0
580 194 2 0.417 6.4862559092267045 13.66336498795464 8.937006748098607 0 0 0
639 214 2 0.417 2.678850904544228 11.494086086175153 9.086572630940559 0 0 0
621 208 2 0.417 7.2374638716394095 13.45769985152958 5.283500940936982 1 -1 1
622 208 2 0.417 6.795882772102814 12.013828307449518 5.536796954300048 1 -1 1
620 208 1 -0.834 7.071590590128142 12.593391647306435 4.807535860083447 1 -1 1
578 194 1 -0.834 6.487753435678832 14.438874599384683 9.487548567055088 0 0 0
87 30 2 0.417 12.313044919260507 10.579777343067475 6.842354186958609 0 0 0
258 87 2 0.417 10.474995325137154 10.223484967399598 8.537660369482571 0 0 0
369 124 2 0.417 13.45282397444424 11.289052106150622 8.896757965485259 0 0 0
327 110 2 0.417 16.552200325619207 10.392729816022689 7.940941462621224 0 0 0
368 124 1 -0.834 13.648588218145566 12.114878443996629 8.465882262432645 0 0 0
308 104 1 -0.834 11.710012151865248 12.84769358237758 6.311302214936749 0 0 0
746 250 1 -0.834 18.774147448335743 11.679010520627836 5.831488042893836 0 0 0
326 110 1 -0.834 16.246785554247026 11.153155572415791 7.458728855447024 0 0 0
86 30 1 -0.834 11.703476246227767 9.861310640308076 7.0951098203655345 0 0 0
328 110 2 0.417 15.642148050766993 11.534725970168452 8.089069615058724 0 0 0
472 158 2 0.417 14.287327353457071 11.366392690983103 5.091034222369216 0 0 1
370 124 2 0.417 13.124516601680082 12.36279589747167 7.721958311632102 0 0 0
573 192 2 0.417 18.07549092643731 9.786521029270716 5.322823513842608 0 0 0
372 125 2 0.417 14.71418781398545 13.957843841328232 4.929210275797926 0 0 0
309 104 2 0.417 11.84204044287867 12.287655312023393 5.477353119726847 0 0 0
245 83 1 -0.834 17.978859500021656 10.517899046904057 9.482699374572121 0 0 0
556 186 2 0.417 10.056152527617181 12.629935286311941 7.197046810593841 0 1 0
747 250 2 0.417 17.94320616408716 11.69367301359263 6.353165744128828 0 0 0
470 158 1 -0.834 14.237260807140515 10.672355836233496 5.766938928522461 0 0 1
471 158 2 0.417 14.93262650819551 10.835138757493006 6.423856336815418 0 0 1
555 186 2 0.417 9.922234994712086 13.274905806857234 8.621737180056702 0 1 0
310 104 2 0.417 12.137546384691442 13.674246889558981 6.013159675354981 0 0 0
748 250 2 0.417 18.500255367370332 12.091641374372326 5.017252926424305 0 0 0
257 87 1 -0.834 9.819721433743217 10.164720548264965 9.241888680252568 0 0 0
447 150 2 0.417 18.209715839238203 14.072762173857585 9.16217211045983 -1 0 0
616 206 2 0.417 14.63266048904348 13.47003713469318 9.356442824206818 0 -1 0
737 247 1 -0.834 7.418218362513877 17.144344435688147 6.979813614046896 0 -1 1
738 247 2 0.417 7.896814782644343 17.83874668653383 6.397016044320862 0 -1 1
13 5 2 0.417 6.263705890819666 18.655075480923344 7.724082173722057 0 -1 0
533 179 1 -0.834 4.368979511158524 16.014240109203126 5.6434054748326075 1 0 0
641 215 1 -0.834 8.508114356430099 18.68676559985234 5.106316930498952 0 -1 1
165 56 2 0.417 4.848579910698786 18.044425915331825 8.814241134943208 0 0 0
739 247 2 0.417 7.478075152774036 17.198233217361075 7.9102886176863905 0 -1 1
567 190 2 0.417 2.1041913715303493 15.710505379134874 8.617315401619145 1 0 0
535 179 2 0.417 4.772659844620297 16.566903202885097 6.27753109605439 1 0 0
262 88 2 0.417 7.659303433365182 15.539437924898863 6.565288182060187 0 0 0
568 190 2 0.417 2.860541983582123 16.994139088358693 8.914898475296853 1 0 0
566 190 1 -0.834 1.952003152608281 16.67880975625236 8.812658020855325 1 0 0
82 28 2 0.417 0.06129151958255313 16.51781492498813 8.075245221781886 0 0 -1
164 56 1 -0.834 4.582000166680502 17.13127151983385 8.995209977759709 0 0 0
534 179 2 0.417 4.004578648174341 15.241981839655969 6.051508377490001 1 0 0
694 232 2 0.417 1.1636795276528094 18.755402715066776 5.559207021743383 0 0 1
579 194 2 0.417 7.046309407731525 15.111172178399029 9.065749639341254 0 0 0
645 216 2 0.417 0.32662634425741577 15.285172238090608 4.785667857938375 0 -1 1
260 88 1 -0.834 7.881433583574026 14.619651631375977 6.414341095411698 0 0 0
692 232 1 -0.834 1.5374971771250046 18.79988795305912 4.696432649615235 0 0 1
461 155 1 -0.834 10.718069030007104 18.647608714322136 6.631627054826312 -1 0 1
216 73 2 0.417 18.182589268064547 18.056357077319525 5.175165466125337 -1 -1 0
665 223 1 -0.834 14.781247663992763 17.83803260560523 5.027908240760442 0 -1 1
644 216 1 -0.834 19.000630800399595 15.109902019466592 5.019659587064065 -1 -1 1
666 223 2 0.417 14.412443080624683 18.545510952447994 5.555614817817094 0 -1 1
676 226 2 0.417 10.817298844557035 16.717222788204243 7.449677711158006 0 0 1
675 226 2 0.417 11.905851355090938 15.769417240470915 7.168000224936406 0 0 1
674 226 1 -0.834 11.341853459671803 16.020572179961196 7.888279006701591 0 0 1
667 223 2 0.417 15.730031999939854 17.894921019741147 4.822898422981784 0 -1 1
646 216 2 0.417 18.88796827821926 15.401595978433289 5.932156908883095 -1 -1 1
364 122 2 0.417 13.708638027493798 15.929530035196713 5.232416749390239 -1 0 0
517 173 2 0.417 14.521490499056128 18.77932689521161 9.02584305103369 0 0 0
722 242 1 -0.834 19.015639621081622 19.15478050439327 6.480878747960302 -1 0 1
463 155 2 0.417 10.19619505786477 18.568633010272357 5.825757092841776 -1 0 1
351 118 2 0.417 14.407074070546484 16.636003717241035 8.645017876358942 -1 0 0
81 28 2 0.417 18.213841577107388 16.223918205798242 8.176614478657061 -1 0 -1
446 150 1 -0.834 17.650586362093524 14.841132837154746 8.91035167408653 -1 0 0
352 118 2 0.417 14.98196705593689 16.940914854436755 7.283493778602416 -1 0 0
80 28 1 -0.834 18.857005052800474 16.716962089558486 7.610237849605692 -1 0 -1