LAMMPS (17 Apr 2024 - Development - patch_17Apr2024-524-gcfcd2b2068)
  using 1 OpenMP thread(s) per MPI task
Reading data file ...
  orthogonal box = (-0.24740156 -0.24740156 -0.24740156) to (19.374305 19.374305 19.374305)
  2 by 2 by 2 MPI processor grid
  reading atoms ...
  768 atoms
  reading velocities ...
  768 velocities
  scanning bonds ...
  2 = max bonds/atom
  scanning angles ...
  1 = max angles/atom
  orthogonal box = (-0.24740156 -0.24740156 -0.24740156) to (19.374305 19.374305 19.374305)
  2 by 2 by 2 MPI processor grid
  reading bonds ...
  512 bonds
  reading angles ...
  256 angles
Finding 1-2 1-3 1-4 neighbors ...
  special bond factors lj:    0        0        0       
  special bond factors coul:  0        0        0       
     2 = max # of 1-2 neighbors
     1 = max # of 1-3 neighbors
     1 = max # of 1-4 neighbors
     2 = max # of special neighbors
  special bonds CPU = 0.001 seconds
  read_data CPU = 0.046 seconds
768 atoms in group water
[0] json_settings= {
   "Note" : "This is a cofiguration file",
   "MBX" : { 
       "box" : [40.00000,0.0,0.0,0.0,40.0000,0.0,0.0,0.0,40.000000],
       "twobody_cutoff"   : 9.0,
       "threebody_cutoff" : 4.5, 
       "max_n_eval_1b"    : 500,
       "max_n_eval_2b"    : 500,
       "max_n_eval_3b"    : 500,
       "dipole_tolerance" : 1E-16,
       "dipole_max_it"    : 100,
       "dipole_method"     : "cg",
       "alpha_ewald_elec" : 0.60,
       "grid_density_elec" : 2.5,
       "spline_order_elec" : 6,
       "alpha_ewald_disp" : 0.60,
       "grid_density_disp" : 2.5,
       "spline_order_disp" : 6,
       "ttm_pairs" : [],
       "ignore_2b_poly" : [],
       "ignore_3b_poly" : []
   }   
}



CITE-CITE-CITE-CITE-CITE-CITE-CITE-CITE-CITE-CITE-CITE-CITE-CITE

Your simulation uses code contributions which should be cited:
- Type Label Framework: https://doi.org/10.1021/acs.jpcb.3c08419
- fix mbx command:
The log file lists these citations in BibTeX format.

CITE-CITE-CITE-CITE-CITE-CITE-CITE-CITE-CITE-CITE-CITE-CITE-CITE

WARNING: No fixes with time integration, atoms won't move (../verlet.cpp:60)
Generated 0 of 1 mixed pair_coeff terms from geometric mixing rule
WARNING: Bonds are defined but no bond style is set (../force.cpp:197)
WARNING: Likewise 1-2 special neighbor interactions != 1.0 (../force.cpp:199)
WARNING: Angles are defined but no angle style is set (../force.cpp:202)
WARNING: Likewise 1-3 special neighbor interactions != 1.0 (../force.cpp:204)
Neighbor list info ...
  update: every = 1 steps, delay = 10 steps, check = yes
  max neighbors/atom: 2000, page size: 100000
  master list distance cutoff = 11
  ghost atom cutoff = 11
  binsize = 5.5, bins = 4 4 4
  2 neighbor lists, perpetual/occasional/extra = 1 1 0
  (1) pair mbx, perpetual
      attributes: half, newton on
      pair build: half/bin/newton
      stencil: half/bin/3d
      bin: standard
  (2) compute rdf, occasional, copy from (1)
      attributes: half, newton on
      pair build: copy
      stencil: none
      bin: none
WARNING: Inconsistent image flags (../domain.cpp:1051)
Per MPI rank memory allocation (min/avg/max) = 7.82 | 7.822 | 7.824 Mbytes
   Step          Time           Temp          TotEng         PotEng         Press          Volume        Density           Lx          c_mbx[1]       c_mbx[2]       c_mbx[3]       c_mbx[4]       c_mbx[5]       c_mbx[6]       c_mbx[7]       c_mbx[8]   
         0   0              298            1944.0085      1262.6966      63015.946      6997.3565      1.0944576      19.126904      0.14370037     3782.734       37.205506      0             -1834.9229      0             -722.46366      1262.6966    
WARNING: Inconsistent image flags (../domain.cpp:1051)
       100   50             298           -362.25626     -1043.5681      10477.882      7712.4294      0.99298282     19.757428      234.35704      1756.2151      48.77907       0             -1327.5024      0             -1755.4169     -1043.5681    
WARNING: Inconsistent image flags (../domain.cpp:1051)
       200   100            298           -471.78184     -1153.0937      1423.8782      8331.5425      0.91919472     20.272554      210.3082       1525.0787      47.13186       0             -1183.4469      0             -1752.1655     -1153.0937    
WARNING: Inconsistent image flags (../domain.cpp:1051)
       300   150            298           -625.5896      -1306.9014     -1194.0614      8803.7996      0.86988689     20.648573      182.34517      1313.7487      34.253754      0             -1080.9835      0             -1756.2655     -1306.9014    
WARNING: Inconsistent image flags (../domain.cpp:1051)
       400   200            298           -627.93265     -1309.2445      1558.2214      9087.528       0.84272751     20.868053      182.8046       1275.0425      37.826018      0             -1045.0431      0             -1759.8744     -1309.2445    
WARNING: Inconsistent image flags (../domain.cpp:1051)
       500   250            298           -729.38118     -1410.693      -4247.9918      9261.4478      0.82690201     21.000338      197.98914      1302.2979      38.909802      0             -1053.4818      0             -1896.408      -1410.693     
WARNING: Inconsistent image flags (../domain.cpp:1051)
       600   300            298           -806.65772     -1487.9696     -175.99324      9356.9994      0.81845788     21.072313      168.14698      1386.7416      46.149954      0             -1073.9307      0             -2015.0774     -1487.9696    
WARNING: Inconsistent image flags (../domain.cpp:1051)
       700   350            298           -828.40958     -1509.7214     -2518.7857      9422.2096      0.81279341     21.121151      176.5335       1374.2523      49.226986      0             -1071.6424      0             -2038.0918     -1509.7214    
WARNING: Inconsistent image flags (../domain.cpp:1051)
       800   400            298           -932.12316     -1613.435      -1332.918       9454.6235      0.81000686     21.145344      159.83486      1422.5039      48.444788      0             -1089.8444      0             -2154.3742     -1613.435     
WARNING: Inconsistent image flags (../domain.cpp:1051)
       900   450            298           -961.90741     -1643.2192     -1538.1994      9449.0397      0.81048552     21.14118       172.75953      1490.1487      47.814462      0             -1116.7341      0             -2237.2078     -1643.2192    
WARNING: Inconsistent image flags (../domain.cpp:1051)
      1000   500            298           -1009.1793     -1690.4911     -1416.676       9409.9246      0.81385454     21.111968      174.52754      1568.041       40.286113      0             -1146.5925      0             -2326.7533     -1690.4911    
WARNING: Inconsistent image flags (../domain.cpp:1051)
      1100   550            298           -1050.8245     -1732.1363     -1043.2364      9350.8136      0.81899931     21.067668      172.52696      1613.1436      44.697611      0             -1162.442       0             -2400.0625     -1732.1363    
WARNING: Inconsistent image flags (../domain.cpp:1051)
      1200   600            298           -1099.1486     -1780.4604      351.43006      9282.0759      0.82506434     21.015918      164.40947      1641.3816      42.710489      0             -1178.6927      0             -2450.2692     -1780.4604    
WARNING: Inconsistent image flags (../domain.cpp:1051)
      1300   650            298           -1139.7058     -1821.0177     -2387.6112      9193.5449      0.83300946     20.948889      161.11927      1701.2447      44.298778      0             -1205.2118      0             -2522.4686     -1821.0177    
WARNING: Inconsistent image flags (../domain.cpp:1051)
      1400   700            298           -1180.9551     -1862.2669      610.4701       9100.3383      0.84154123     20.877853      166.38311      1804.2241      51.006867      0             -1245.038       0             -2638.843      -1862.2669    
WARNING: Inconsistent image flags (../domain.cpp:1051)
      1500   750            298           -1207.7856     -1889.0974     -383.40758      9039.6994      0.84718634     20.831378      157.07653      1880.1138      52.617381      0             -1274.9042      0             -2704.0009     -1889.0974    
WARNING: Inconsistent image flags (../domain.cpp:1051)
      1600   800            298           -1261.9111     -1943.2229     -1989.129       9005.11        0.85044046     20.804774      168.68132      1834.4761      58.688686      0             -1262.7891      0             -2742.2798     -1943.2229    
WARNING: Inconsistent image flags (../domain.cpp:1051)
      1700   850            298           -1265.1121     -1946.4239      1171.0044      8947.7233      0.8558948      20.760486      146.62297      1887.7576      56.568523      0             -1284.1596      0             -2753.2135     -1946.4239    
WARNING: Inconsistent image flags (../domain.cpp:1051)
      1800   900            298           -1304.6102     -1985.9221     -1957.1117      8879.9704      0.86242515     20.707953      152.82342      1921.6579      61.562343      0             -1304.8565      0             -2817.1092     -1985.9221    
WARNING: Inconsistent image flags (../domain.cpp:1051)
      1900   950            298           -1310.2262     -1991.5381     -267.19483      8790.1723      0.87123547     20.637914      146.56154      1913.1676      60.714703      0             -1309.4284      0             -2802.5536     -1991.5381    
WARNING: Inconsistent image flags (../domain.cpp:1051)
      2000   1000           298           -1334.2924     -2015.6042     -981.98579      8692.554       0.88101953     20.561232      164.1216       2000.6242      59.165742      0             -1345.5643      0             -2893.9515     -2015.6042    
WARNING: Inconsistent image flags (../domain.cpp:1051)
      2100   1050           298           -1388.0402     -2069.352       1975.1674      8632.9592      0.88710136     20.514136      158.54898      2033.0214      54.842917      0             -1358.3952      0             -2957.3701     -2069.352     
WARNING: Inconsistent image flags (../domain.cpp:1051)
      2200   1100           298           -1379.699      -2061.0108     -1200.6942      8613.4866      0.88910684     20.4987        168.65692      2046.3384      61.913492      0             -1364.1729      0             -2973.7468     -2061.0108    
WARNING: Inconsistent image flags (../domain.cpp:1051)
      2300   1150           298           -1421.7311     -2103.043      -415.6719       8601.3675      0.89035957     20.489082      154.19231      1955.812       66.369412      0             -1335.3024      0             -2944.1143     -2103.043     
WARNING: Inconsistent image flags (../domain.cpp:1051)
      2400   1200           298           -1398.0924     -2079.4043      815.91219      8542.3958      0.89650609     20.44215       158.04419      2100.9628      61.718343      0             -1389.2668      0             -3010.8627     -2079.4043    
WARNING: Inconsistent image flags (../domain.cpp:1051)
      2500   1250           298           -1450.2199     -2131.5317     -292.20673      8499.1745      0.90106513     20.407615      168.57145      2160.2457      51.850534      0             -1415.0082      0             -3097.1912     -2131.5317    
WARNING: Inconsistent image flags (../domain.cpp:1051)
      2600   1300           298           -1459.5003     -2140.8121      291.52693      8478.6416      0.90324726     20.391168      155.62245      2257.0836      48.007789      0             -1439.7579      0             -3161.7681     -2140.8121    
WARNING: Inconsistent image flags (../domain.cpp:1051)
      2700   1350           298           -1480.2825     -2161.5943     -1481.6048      8471.3937      0.90402006     20.385355      159.69846      2106.4435      45.272611      0             -1396.2965      0             -3076.7123     -2161.5943    
WARNING: Inconsistent image flags (../domain.cpp:1051)
      2800   1400           298           -1500.7923     -2182.1042      195.69647      8417.3524      0.90982408     20.341915      165.25292      2208.5887      40.104039      0             -1432.61        0             -3163.4398     -2182.1042    
WARNING: Inconsistent image flags (../domain.cpp:1051)
      2900   1450           298           -1522.505      -2203.8168     -120.6383       8333.17        0.91901519     20.273874      162.00962      2198.7416      61.918137      0             -1444.9151      0             -3181.5711     -2203.8168    
WARNING: Inconsistent image flags (../domain.cpp:1051)
      3000   1500           298           -1518.8464     -2200.1582     -331.65965      8247.3399      0.9285794      20.204028      171.42154      2227.0701      67.768991      0             -1459.1063      0             -3207.3125     -2200.1582    
WARNING: Inconsistent image flags (../domain.cpp:1051)
      3100   1550           298           -1527.8923     -2209.2041     -619.36791      8172.4299      0.93709091     20.142671      160.15321      2149.2617      61.727774      0             -1448.2778      0             -3132.0691     -2209.2041    
WARNING: Inconsistent image flags (../domain.cpp:1051)
      3200   1600           298           -1486.4976     -2167.8094      353.61247      8099.9943      0.94547101     20.082984      171.90987      2224.7825      62.256795      0             -1477.3034      0             -3149.4552     -2167.8094    
WARNING: Inconsistent image flags (../domain.cpp:1051)
      3300   1650           298           -1491.8457     -2173.1575      1016.8588      8073.1189      0.94861849     20.060748      175.87325      2208.2602      79.475728      0             -1474.4265      0             -3162.3402     -2173.1575    
WARNING: Inconsistent image flags (../domain.cpp:1051)
      3400   1700           298           -1531.1519     -2212.4637      41.275219      8082.7095      0.9474929      20.068688      178.08618      2189.3572      68.497086      0             -1464.9568      0             -3183.4474     -2212.4637    
WARNING: Inconsistent image flags (../domain.cpp:1051)
      3500   1750           298           -1556.0263     -2237.3381      194.70239      8080.5113      0.94775065     20.066869      169.0254       2257.2403      65.706847      0             -1487.9388      0             -3241.3719     -2237.3381    
WARNING: Inconsistent image flags (../domain.cpp:1051)
      3600   1800           298           -1556.9522     -2238.264      -176.19318      8075.9771      0.94828276     20.063115      175.42283      2316.831       59.398666      0             -1506.7253      0             -3283.1913     -2238.264     
WARNING: Inconsistent image flags (../domain.cpp:1051)
      3700   1850           298           -1552.8647     -2234.1765      760.16717      8103.6594      0.94504341     20.086012      180.07281      2340.8692      67.181391      0             -1510.3689      0             -3311.9311     -2234.1765    
WARNING: Inconsistent image flags (../domain.cpp:1051)
      3800   1900           298           -1556.147      -2237.4588      361.25345      8158.8403      0.93865176     20.1315        187.94766      2347.8743      77.899881      0             -1513.652       0             -3337.5286     -2237.4588    
WARNING: Inconsistent image flags (../domain.cpp:1051)
      3900   1950           298           -1528.347      -2209.6588      1123.3921      8223.0471      0.93132263     20.184171      180.62904      2332.768       72.26766       0             -1495.6696      0             -3299.6539     -2209.6588    
WARNING: Inconsistent image flags (../domain.cpp:1051)
      4000   2000           298           -1516.9795     -2198.2913      409.1036       8301.8609      0.92248111     20.248452      183.53885      2254.3662      64.316952      0             -1459.458       0             -3241.0554     -2198.2913    
WARNING: Inconsistent image flags (../domain.cpp:1051)
      4100   2050           298           -1489.1648     -2170.4766     -2249.7776      8371.8127      0.91477319     20.305164      192.14974      2188.4814      64.582601      0             -1430.6558      0             -3185.0346     -2170.4766    
WARNING: Inconsistent image flags (../domain.cpp:1051)
      4200   2100           298           -1510.8068     -2192.1186     -1589.7953      8377.0916      0.91419675     20.309431      177.08292      2018.5808      68.665338      0             -1374.7059      0             -3081.7418     -2192.1186    
WARNING: Inconsistent image flags (../domain.cpp:1051)
      4300   2150           298           -1515.8423     -2197.1541      304.08377      8281.4497      0.92475474     20.231843      195.90229      2182.1663      62.221687      0             -1431.9048      0             -3205.5395     -2197.1541    
WARNING: Inconsistent image flags (../domain.cpp:1051)
      4400   2200           298           -1545.0424     -2226.3542     -2108.7829      8147.5527      0.93995217     20.122212      177.66082      2164.588       63.885838      0             -1444.1308      0             -3188.358      -2226.3542    
WARNING: Inconsistent image flags (../domain.cpp:1051)
      4500   2250           298           -1572.9246     -2254.2364     -169.94481      7995.5561      0.95782079     19.996296      178.35039      2337.4371      61.809996      0             -1513.3796      0             -3318.4544     -2254.2364    
WARNING: Inconsistent image flags (../domain.cpp:1051)
      4600   2300           298           -1604.7259     -2286.0378     -628.11037      7881.1946      0.97171942     19.900501      186.8424       2337.9272      61.432068      0             -1526.0882      0             -3346.1512     -2286.0378    
WARNING: Inconsistent image flags (../domain.cpp:1051)
      4700   2350           298           -1605.0018     -2286.3136      687.52143      7799.5381      0.98189275     19.831533      169.79861      2365.8078      68.699935      0             -1542.5492      0             -3348.0708     -2286.3136    
WARNING: Inconsistent image flags (../domain.cpp:1051)
      4800   2400           298           -1622.1703     -2303.4821      1167.1123      7763.6572      0.98643071     19.801076      169.82453      2385.2814      73.019853      0             -1556.9317      0             -3374.6762     -2303.4821    
WARNING: Inconsistent image flags (../domain.cpp:1051)
      4900   2450           298           -1610.7269     -2292.0387     -59.387258      7774.5873      0.98504391     19.810364      191.0331       2463.7316      66.504878      0             -1580.051       0             -3433.2573     -2292.0387    
WARNING: Inconsistent image flags (../domain.cpp:1051)
      5000   2500           298           -1623.9641     -2305.2759      791.06456      7820.689       0.97923724     19.849444      192.9633       2369.6983      74.428029      0             -1544.0561      0             -3398.3094     -2305.2759    
WARNING: Inconsistent image flags (../domain.cpp:1051)
      5100   2550           298           -1636.3101     -2317.622      -965.69172      7857.3802      0.97466453     19.880437      187.78018      2389.3201      72.157512      0             -1545.5288      0             -3421.3509     -2317.622     
WARNING: Inconsistent image flags (../domain.cpp:1051)
      5200   2600           298           -1573.953      -2255.2648      824.57922      7881.9493      0.97162638     19.901137      184.41503      2335.0465      56.05586       0             -1521.2086      0             -3309.5736     -2255.2648    
WARNING: Inconsistent image flags (../domain.cpp:1051)
      5300   2650           298           -1548.9673     -2230.2791      1180.5352      7907.5121      0.96848539     19.922628      199.01846      2400.0135      66.911307      0             -1540.5355      0             -3355.6869     -2230.2791    
WARNING: Inconsistent image flags (../domain.cpp:1051)
      5400   2700           298           -1566.2913     -2247.6032      85.926048      7961.468       0.96192182     19.967838      190.60475      2325.7653      67.927651      0             -1512.5493      0             -3319.3516     -2247.6032    
WARNING: Inconsistent image flags (../domain.cpp:1051)
      5500   2750           298           -1547.8717     -2229.1835     -758.30092      8019.2035      0.95499632     20.01599       197.51717      2232.4371      68.164624      0             -1477.1818      0             -3250.1206     -2229.1835    
WARNING: Inconsistent image flags (../domain.cpp:1051)
      5600   2800           298           -1547.9682     -2229.2801      650.66316      8029.8702      0.95372773     20.024861      187.19349      2177.9165      68.294567      0             -1458.6162      0             -3204.0684     -2229.2801    
WARNING: Inconsistent image flags (../domain.cpp:1051)
      5700   2850           298           -1516.3144     -2197.6262     -2077.2002      7993.3414      0.95808617     19.99445       199.5703       2253.2691      73.526192      0             -1483.6702      0             -3240.3216     -2197.6262    
WARNING: Inconsistent image flags (../domain.cpp:1051)
      5800   2900           298           -1544.5517     -2225.8635      2979.2766      7968.7723      0.96104011     19.973943      202.47221      2381.0843      59.75844       0             -1528.7627      0             -3340.4158     -2225.8635    
WARNING: Inconsistent image flags (../domain.cpp:1051)
      5900   2950           298           -1526.2392     -2207.5511     -95.253136      7974.7761      0.9603166      19.978958      203.21595      2336.172       64.400068      0             -1515.8786      0             -3295.4605     -2207.5511    
WARNING: Inconsistent image flags (../domain.cpp:1051)
      6000   3000           298           -1548.628      -2229.9398     -1004.05        7991.3957      0.95831944     19.992827      204.79354      2256.2701      77.805411      0             -1494.302       0             -3274.5069     -2229.9398    
WARNING: Inconsistent image flags (../domain.cpp:1051)
      6100   3050           298           -1547.9635     -2229.2753      244.9732       7989.9013      0.95849868     19.991581      199.29669      2278.69        75.600874      0             -1498.1284      0             -3284.7345     -2229.2753    
WARNING: Inconsistent image flags (../domain.cpp:1051)
      6200   3100           298           -1570.5153     -2251.8271     -1396.8703      7973.5393      0.96046555     19.977925      201.04856      2250.9722      82.660975      0             -1495.2476      0             -3291.2613     -2251.8271    
WARNING: Inconsistent image flags (../domain.cpp:1051)
      6300   3150           298           -1532.0405     -2213.3524      446.65848      7939.0006      0.96464408     19.949037      205.6698       2327.5951      73.013355      0             -1518.8418      0             -3300.7889     -2213.3524    
WARNING: Inconsistent image flags (../domain.cpp:1051)
      6400   3200           298           -1525.3082     -2206.62        2800.5112      7905.8687      0.9686867      19.921248      212.27189      2394.4384      76.666368      0             -1548.4378      0             -3341.5589     -2206.62      
WARNING: Inconsistent image flags (../domain.cpp:1051)
      6500   3250           298           -1535.351      -2216.6628     -2447.3365      7916.8622      0.96734156     19.930477      236.10114      2262.1587      65.376093      0             -1505.5644      0             -3274.7343     -2216.6628    
WARNING: Inconsistent image flags (../domain.cpp:1051)
      6600   3300           298           -1542.6851     -2223.9969      655.67348      7925.0792      0.96633859     19.93737       207.86687      2314.994       82.436829      0             -1521.753       0             -3307.5416     -2223.9969    
WARNING: Inconsistent image flags (../domain.cpp:1051)
      6700   3350           298           -1540.33       -2221.6418      501.61455      7929.1598      0.96584128     19.940791      214.94989      2279.2578      78.080575      0             -1508.6789      0             -3285.2511     -2221.6418    
WARNING: Inconsistent image flags (../domain.cpp:1051)
      6800   3400           298           -1552.6677     -2233.9796      487.83452      7930.085       0.9657286      19.941567      202.98859      2299.3108      86.648777      0             -1518.235       0             -3304.6928     -2233.9796    
WARNING: Inconsistent image flags (../domain.cpp:1051)
      6900   3450           298           -1557.2967     -2238.6085      1090.9313      7944.2631      0.96400506     19.953444      218.04739      2398.7735      78.263452      0             -1543.3462      0             -3390.3466     -2238.6085    
WARNING: Inconsistent image flags (../domain.cpp:1051)
      7000   3500           298           -1578.3828     -2259.6946     -28.179403      7998.3849      0.95748203     19.998654      203.75448      2394.738       71.416805      0             -1539.1331      0             -3390.4708     -2259.6946    
WARNING: Inconsistent image flags (../domain.cpp:1051)
      7100   3550           298           -1576.9087     -2258.2205      796.11897      8084.6535      0.94726507     20.070297      216.68026      2447.7328      66.00433       0             -1545.5536      0             -3443.0843     -2258.2205    
WARNING: Inconsistent image flags (../domain.cpp:1051)
      7200   3600           298           -1563.4037     -2244.7155     -1866.8702      8179.9551      0.93622884     20.148852      203.99756      2230.2743      58.300784      0             -1466.5567      0             -3270.7315     -2244.7155    
WARNING: Inconsistent image flags (../domain.cpp:1051)
      7300   3650           298           -1533.179      -2214.4908     -118.91203      8217.1296      0.93199332     20.179329      193.40166      2181.6892      50.702199      0             -1442.4583      0             -3197.8256     -2214.4908    
WARNING: Inconsistent image flags (../domain.cpp:1051)
      7400   3700           298           -1535.9096     -2217.2214     -1325.7009      8194.6015      0.9345555      20.16087       202.53121      2223.1377      54.060501      0             -1461.1881      0             -3235.7628     -2217.2214    
WARNING: Inconsistent image flags (../domain.cpp:1051)
      7500   3750           298           -1509.0643     -2190.3761     -242.75423      8142.3504      0.94055272     20.117929      200.37104      2279.9105      55.956875      0             -1484.2538      0             -3242.3607     -2190.3761    
WARNING: Inconsistent image flags (../domain.cpp:1051)
      7600   3800           298           -1568.9048     -2250.2166     -860.41033      8079.8228      0.94783141     20.066299      198.99497      2266.6113      52.555525      0             -1483.7747      0             -3284.6038     -2250.2166    
WARNING: Inconsistent image flags (../domain.cpp:1051)
      7700   3850           298           -1582.4264     -2263.7382     -246.06503      7984.7087      0.95912201     19.987249      192.47311      2295.5131      66.103421      0             -1499.9503      0             -3317.8775     -2263.7382    
WARNING: Inconsistent image flags (../domain.cpp:1051)
      7800   3900           298           -1596.8799     -2278.1917      206.01551      7888.7979      0.97078287     19.906899      209.81753      2470.1474      58.609202      0             -1566.8273      0             -3449.9385     -2278.1917    
WARNING: Inconsistent image flags (../domain.cpp:1051)
      7900   3950           298           -1592.3155     -2273.6273      2247.2115      7833.3946      0.97764893     19.860187      194.97454      2534.2138      59.356888      0             -1591.24        0             -3470.9325     -2273.6273    
WARNING: Inconsistent image flags (../domain.cpp:1051)
      8000   4000           298           -1611.6651     -2292.9769      340.91204      7825.7084      0.97860915     19.853689      201.60269      2334.1735      54.270792      0             -1528.6042      0             -3354.4197     -2292.9769    
WARNING: Inconsistent image flags (../domain.cpp:1051)
      8100   4050           298           -1582.38       -2263.6918     -1864.6887      7803.4116      0.98140535     19.834816      226.67398      2328.3297      62.377402      0             -1530.3153      0             -3350.7576     -2263.6918    
WARNING: Inconsistent image flags (../domain.cpp:1051)
      8200   4100           298           -1552.3191     -2233.6309      2268.7919      7775.997       0.98486533     19.811561      198.21337      2457.1083      59.701894      0             -1573.2039      0             -3375.4507     -2233.6309    
WARNING: Inconsistent image flags (../domain.cpp:1051)
      8300   4150           298           -1566.2236     -2247.5354     -1076.8186      7781.3812      0.98418387     19.816132      225.40101      2353.7704      67.426099      0             -1543.7819      0             -3350.3511     -2247.5354    
WARNING: Inconsistent image flags (../domain.cpp:1051)
      8400   4200           298           -1565.9021     -2247.2139      1038.8373      7794.9372      0.9824723      19.827633      205.40945      2360.6628      61.366036      0             -1543.5736      0             -3331.0786     -2247.2139    
WARNING: Inconsistent image flags (../domain.cpp:1051)
      8500   4250           298           -1560.402      -2241.7139     -220.48058      7813.6598      0.98011816     19.843495      210.7699       2331.1155      68.94904       0             -1534.3222      0             -3318.2261     -2241.7139    
WARNING: Inconsistent image flags (../domain.cpp:1051)
      8600   4300           298           -1583.3008     -2264.6126     -325.70726      7824.64        0.97874278     19.852786      226.59681      2410.0624      56.069367      0             -1549.6552      0             -3407.686      -2264.6126    
WARNING: Inconsistent image flags (../domain.cpp:1051)
      8700   4350           298           -1579.0045     -2260.3163      113.94169      7841.0047      0.97670008     19.866616      230.84629      2455.6263      62.138119      0             -1571.1465      0             -3437.7805     -2260.3163    
WARNING: Inconsistent image flags (../domain.cpp:1051)
      8800   4400           298           -1584.5168     -2265.8286     -299.21858      7857.6313      0.97463339     19.880649      217.1232       2356.6167      56.901703      0             -1539.731       0             -3356.7392     -2265.8286    
WARNING: Inconsistent image flags (../domain.cpp:1051)
      8900   4450           298           -1613.5061     -2294.818       168.90838      7838.8963      0.97696277     19.864836      206.1935       2299.0954      71.148051      0             -1523.8033      0             -3347.4516     -2294.818     
WARNING: Inconsistent image flags (../domain.cpp:1051)
      9000   4500           298           -1619.1919     -2300.5037      290.11281      7786.7814      0.98350134     19.820715      215.40124      2429.0428      72.304408      0             -1569.633       0             -3447.6192     -2300.5037    
WARNING: Inconsistent image flags (../domain.cpp:1051)
      9100   4550           298           -1623.2467     -2304.5585     -222.38905      7742.6404      0.98910829     19.783192      230.10583      2441.8289      61.692417      0             -1577.8783      0             -3460.3074     -2304.5585    
WARNING: Inconsistent image flags (../domain.cpp:1051)
      9200   4600           298           -1601.9351     -2283.247      -54.886462      7711.2846      0.99313024     19.75645       230.21267      2430.2622      66.07835       0             -1579.3468      0             -3430.4533     -2283.247     
WARNING: Inconsistent image flags (../domain.cpp:1051)
      9300   4650           298           -1615.2867     -2296.5985     -512.18061      7701.2752      0.99442101     19.747898      228.15987      2438.421       65.710386      0             -1581.6415      0             -3447.2482     -2296.5985    
WARNING: Inconsistent image flags (../domain.cpp:1051)
      9400   4700           298           -1597.5473     -2278.8591      1329.5561      7707.8147      0.99357732     19.753486      198.20579      2337.0945      67.534661      0             -1546.7926      0             -3334.9015     -2278.8591    
WARNING: Too many warnings: 101 vs 100. All future warnings will be suppressed (../thermo.cpp:478)
      9500   4750           298           -1578.1601     -2259.4719     -847.04338      7708.7931      0.99345121     19.754322      220.83687      2337.0962      59.717203      0             -1544.8482      0             -3332.274      -2259.4719    
      9600   4800           298           -1595.1842     -2276.496       1349.4106      7701.0796      0.99444626     19.747731      208.96546      2402.6863      64.638742      0             -1569.7803      0             -3383.0063     -2276.496     
      9700   4850           298           -1584.6475     -2265.9593      628.18142      7702.7106      0.99423569     19.749125      204.77937      2455.4808      69.724615      0             -1579.7699      0             -3416.1742     -2265.9593    
      9800   4900           298           -1600.7172     -2282.029       173.71286      7730.0052      0.99072506     19.772425      195.00857      2402.4777      63.780915      0             -1564.8245      0             -3378.4717     -2282.029     
      9900   4950           298           -1582.2957     -2263.6075     -970.09153      7748.9498      0.98830294     19.788564      217.8188       2351.6994      67.891601      0             -1545.236       0             -3355.7813     -2263.6075    
     10000   5000           298           -1618.7307     -2300.0425      1439.5252      7739.9862      0.98944749     19.780931      197.50937      2386.5562      64.91829       0             -1561.0037      0             -3388.0227     -2300.0425    
     10100   5050           298           -1595.0242     -2276.336      -655.63638      7734.4583      0.99015465     19.776221      222.01647      2444.0967      72.018753      0             -1582.2083      0             -3432.2596     -2276.336     
     10200   5100           298           -1591.8767     -2273.1885      1114.7902      7747.5475      0.98848181     19.78737       209.02837      2340.7407      72.788052      0             -1548.6692      0             -3347.0764     -2273.1885    
     10300   5150           298           -1617.5697     -2298.8815     -1391.0508      7739.9895      0.98944706     19.780934      216.12438      2465.1521      66.972545      0             -1590.0064      0             -3457.1242     -2298.8815    
     10400   5200           298           -1636.7275     -2318.0393      916.91559      7743.4712      0.98900218     19.783899      212.90019      2464.2405      64.842431      0             -1588.2907      0             -3471.7317     -2318.0393    
     10500   5250           298           -1641.5962     -2322.9081     -1795.9982      7765.2252      0.98623152     19.802409      217.08458      2480.7632      66.756775      0             -1591.2818      0             -3496.2308     -2322.9081    
     10600   5300           298           -1660.4659     -2341.7777      778.9512       7787.4525      0.98341657     19.821285      204.85523      2355.1201      56.922899      0             -1540.0636      0             -3418.6124     -2341.7777    
     10700   5350           298           -1662.6963     -2344.0081     -2288.1846      7762.3936      0.98659129     19.800001      232.39387      2446.4537      69.307197      0             -1580.2564      0             -3511.9065     -2344.0081    
     10800   5400           298           -1648.4316     -2329.7435      1769.7626      7705.8994      0.99382428     19.75185       220.14246      2497.609       74.813622      0             -1601.3713      0             -3520.9373     -2329.7435    
     10900   5450           298           -1609.8329     -2291.1447     -656.06437      7649.9382      1.0010943      19.70392       226.17575      2421.4062      74.255301      0             -1581.4659      0             -3431.5161     -2291.1447    
     11000   5500           298           -1625.6606     -2306.9724     -1008.3934      7595.335       1.0082912      19.656928      237.6029       2426.3219      58.77751       0             -1586.5114      0             -3443.1633     -2306.9724    
     11100   5550           298           -1613.8075     -2295.1193      133.35619      7546.0836      1.0148721      19.614348      232.16284      2496.8045      63.081297      0             -1616.3419      0             -3470.8261     -2295.1193    
     11200   5600           298           -1612.0667     -2293.3785      478.36724      7523.2388      1.0179538      19.594534      239.91329      2540.7144      56.113025      0             -1638.7782      0             -3491.341      -2293.3785    
     11300   5650           298           -1649.4818     -2330.7937     -529.97395      7536.7271      1.016132       19.606238      242.72882      2494.1037      70.618566      0             -1619.4353      0             -3518.8095     -2330.7937    
     11400   5700           298           -1611.809      -2293.1209      557.80597      7579.0792      1.0104539      19.642894      224.93077      2488.8696      69.539573      0             -1609.0171      0             -3467.4437     -2293.1209    
     11500   5750           298           -1613.7993     -2295.1112     -1389.0322      7650.6678      1.0009989      19.704547      233.38587      2401.5246      69.788497      0             -1575.3836      0             -3424.4265     -2295.1112    
     11600   5800           298           -1617.619      -2298.9308      722.28399      7732.0011      0.99046932     19.774126      225.01412      2391.6097      81.608325      0             -1567.9043      0             -3429.2586     -2298.9308    
     11700   5850           298           -1575.2037     -2256.5155     -718.85424      7797.0985      0.98219997     19.829465      233.62031      2400.3545      77.887958      0             -1562.163       0             -3406.2153     -2256.5155    
     11800   5900           298           -1565.506      -2246.8178     -3036.0511      7830.7936      0.97797366     19.857989      240.72952      2259.7945      73.125935      0             -1517.8743      0             -3302.5935     -2246.8178    
     11900   5950           298           -1541.7314     -2223.0432      1546.7187      7795.5606      0.98239373     19.828162      248.09636      2323.0446      81.372364      0             -1538.7209      0             -3336.8357     -2223.0432    
     12000   6000           298           -1557.3652     -2238.677      -1686.9123      7739.3133      0.98953351     19.780358      251.6317       2360.7936      77.851538      0             -1561.4406      0             -3367.5133     -2238.677     
     12100   6050           298           -1560.7301     -2242.0419      765.96444      7696.9807      0.99497584     19.744227      247.09789      2422.1387      69.939431      0             -1579.2677      0             -3401.9503     -2242.0419    
     12200   6100           298           -1596.5016     -2277.8134      1833.9381      7684.9209      0.99653724     19.73391       229.10035      2428.8895      76.456856      0             -1583.6307      0             -3428.6294     -2277.8134    
     12300   6150           298           -1602.8564     -2284.1683     -1602.3899      7694.6733      0.9952742      19.742254      249.34793      2422           89.944974      0             -1584.0299      0             -3461.4312     -2284.1683    
     12400   6200           298           -1603.1691     -2284.4809     -582.29931      7699.2867      0.99467784     19.746198      224.77324      2324.8665      77.160162      0             -1550.5884      0             -3360.6925     -2284.4809    
     12500   6250           298           -1592.9887     -2274.3006      153.88277      7666.0628      0.99898867     19.717755      236.10654      2427.7607      74.608189      0             -1584.7543      0             -3428.0217     -2274.3006    
     12600   6300           298           -1594.4719     -2275.7837     -1183.7586      7626.5656      1.0041623      19.683833      231.49084      2395.4416      64.248599      0             -1579.5675      0             -3387.3973     -2275.7837    
     12700   6350           298           -1586.7786     -2268.0904      1825.3676      7591.9754      1.0087374      19.654029      234.80702      2427.448       64.591289      0             -1594.7657      0             -3400.171      -2268.0904    
     12800   6400           298           -1564.9124     -2246.2242      430.64157      7584.0676      1.0097892      19.647203      260.80642      2489.41        63.401551      0             -1617.5686      0             -3442.2737     -2246.2242    
     12900   6450           298           -1581.8647     -2263.1765     -448.06982      7630.8415      1.0035996      19.687511      247.35287      2447.5834      72.885887      0             -1598.9211      0             -3432.0775     -2263.1765    
     13000   6500           298           -1586.9717     -2268.2835      1179.6853      7714.6341      0.99269904     19.75931       246.79071      2382.8809      81.348806      0             -1566.1627      0             -3413.1412     -2268.2835    
     13100   6550           298           -1620.0974     -2301.4093     -1843.5439      7780.275       0.9843238      19.815193      239.6159       2457.8014      77.186226      0             -1585.6646      0             -3490.3482     -2301.4093    
     13200   6600           298           -1651.3234     -2332.6353     -402.8614       7818.6433      0.97949345     19.847713      221.98792      2374.5058      79.440601      0             -1551.2952      0             -3457.2744     -2332.6353    
     13300   6650           298           -1637.7169     -2319.0287     -710.75067      7808.9763      0.98070599     19.839529      229.65652      2481.4718      74.691658      0             -1583.2606      0             -3521.5881     -2319.0287    
     13400   6700           298           -1625.0216     -2306.3334      1925.6959      7765.1077      0.98624645     19.802309      236.32262      2530.3372      74.095451      0             -1602.2283      0             -3544.8604     -2306.3334    
     13500   6750           298           -1622.9492     -2304.261      -3868.0674      7727.6514      0.99102682     19.770418      262.44164      2436.4291      71.038786      0             -1582.9689      0             -3491.2017     -2304.261     
     13600   6800           298           -1622.4157     -2303.7276      2104.4958      7670.75        0.99837824     19.721772      229.59337      2503.2116      61.76172       0             -1608.3488      0             -3489.9454     -2303.7276    
     13700   6850           298           -1649.9882     -2331.3001     -846.83047      7627.5783      1.004029       19.684704      251.22705      2595.2019      78.672379      0             -1642.4017      0             -3613.9997     -2331.3001    
     13800   6900           298           -1661.7662     -2343.078      -457.68002      7631.0317      1.0035746      19.687674      224.00695      2479.1903      80.21445       0             -1603.0134      0             -3523.4763     -2343.078     
     13900   6950           298           -1660.3832     -2341.6951      375.667        7649.8734      1.0011028      19.703865      233.0462       2454.4203      68.374952      0             -1594.4812      0             -3503.0553     -2341.6951    
     14000   7000           298           -1647.4276     -2328.7394      1054.2088      7658.1096      1.0000261      19.710934      231.85605      2537.8059      70.160006      0             -1621.54        0             -3547.0213     -2328.7394    
     14100   7050           298           -1629.1154     -2310.4272     -1528.4144      7664.5009      0.99919225     19.716415      243.90711      2450.7452      69.819639      0             -1589.23        0             -3485.6692     -2310.4272    
     14200   7100           298           -1618.8311     -2300.1429      1890.0565      7657.3757      1.000122       19.710304      242.81707      2451.6104      84.349291      0             -1593.5611      0             -3485.3585     -2300.1429    
     14300   7150           298           -1622.4915     -2303.8034     -72.017982      7654.4758      1.0005009      19.707815      248.09314      2505.9576      89.10098       0             -1612.8319      0             -3534.1232     -2303.8034    
     14400   7200           298           -1617.9316     -2299.2434      1061.3682      7681.2006      0.9970199      19.730725      227.47583      2418.9399      73.862254      0             -1579.2075      0             -3440.3138     -2299.2434    
     14500   7250           298           -1660.4304     -2341.7422     -913.60817      7703.5026      0.99413348     19.749802      235.57779      2459.0897      78.22833       0             -1587.8999      0             -3526.738      -2341.7422    
     14600   7300           298           -1696.8961     -2378.208      -2045.965       7688.4538      0.99607932     19.736933      247.81879      2552.0896      82.101406      0             -1629.2343      0             -3630.9834     -2378.208     
     14700   7350           298           -1656.9329     -2338.2447      1309.1249      7672.1131      0.99820086     19.722941      249.28841      2626.1703      77.01696       0             -1651.1164      0             -3639.604      -2338.2447    
     14800   7400           298           -1651.859      -2333.1709      1411.1863      7703.1108      0.99418405     19.749467      243.14648      2483.755       74.912107      0             -1598.2359      0             -3536.7485     -2333.1709    
     14900   7450           298           -1659.1599     -2340.4717     -1587.9165      7748.744       0.98832919     19.788389      234.72962      2355.4887      70.660022      0             -1552.0659      0             -3449.2842     -2340.4717    
     15000   7500           298           -1636.4821     -2317.794      -389.19863      7758.6912      0.98706208     19.796853      266.29734      2545.6211      84.708036      0             -1620.6652      0             -3593.7552     -2317.794     
     15100   7550           298           -1603.1574     -2284.4692      2100.7581      7777.7334      0.98464546     19.813035      242.64914      2533.4829      64.928421      0             -1609.4595      0             -3516.0702     -2284.4692    
     15200   7600           298           -1605.165      -2286.4768     -938.43313      7828.6943      0.9782359      19.856214      276.10536      2550.215       61.016248      0             -1609.531       0             -3564.2824     -2286.4768    
     15300   7650           298           -1614.6449     -2295.9568     -524.3872       7898.4876      0.96959193     19.915046      228.92929      2376.9635      57.177474      0             -1544.5068      0             -3414.5203     -2295.9568    
     15400   7700           298           -1589.4656     -2270.7774     -1382.0714      7931.113       0.96560342     19.942429      250.40131      2284.8156      66.720012      0             -1505.9148      0             -3366.7996     -2270.7774    
     15500   7750           298           -1586.9409     -2268.2528     -1398.9886      7886.8303      0.97102506     19.905244      252.22391      2434.8298      61.740035      0             -1564.0609      0             -3452.9856     -2268.2528    
     15600   7800           298           -1585.1178     -2266.4296      1249.339       7834.9729      0.97745198     19.861521      258.7882       2539.2185      58.457987      0             -1601.8878      0             -3521.0065     -2266.4296    
     15700   7850           298           -1604.4974     -2285.8092      184.63125      7835.8372      0.97734418     19.862251      249.22031      2507.1387      64.233142      0             -1596.8631      0             -3509.5382     -2285.8092    
     15800   7900           298           -1600.0061     -2281.3179     -224.7313       7880.147       0.9718486      19.89962       259.78427      2475.8358      70.464724      0             -1575.194       0             -3512.2087     -2281.3179    
     15900   7950           298           -1634.4753     -2315.7871     -125.07481      7947.5578      0.96360543     19.956202      241.27186      2459.8845      68.768007      0             -1568.5799      0             -3517.1316     -2315.7871    
     16000   8000           298           -1609.1647     -2290.4766     -2371.7415      8021.1645      0.95476285     20.017622      264.51643      2465.9835      69.409832      0             -1557.8852      0             -3532.5011     -2290.4766    
     16100   8050           298           -1604.5644     -2285.8762     -1603.1091      8062.693       0.94984515     20.052108      247.8753       2305.224       69.012309      0             -1503.0738      0             -3404.914      -2285.8762    
     16200   8100           298           -1583.7158     -2265.0277     -18.917131      8014.1856      0.95559427     20.011814      270.52664      2467.0308      63.282449      0             -1554.6223      0             -3511.2453     -2265.0277    
     16300   8150           298           -1632.2872     -2313.599      -282.88584      7929.3357      0.96581986     19.940939      244.6823       2525.3349      61.771507      0             -1586.4225      0             -3558.9651     -2313.599     
     16400   8200           298           -1644.2262     -2325.5381     -1451.7991      7839.8856      0.97683949     19.865671      250.02114      2490.0438      62.27572       0             -1585.8296      0             -3542.0492     -2325.5381    
     16500   8250           298           -1648.8258     -2330.1376      663.73308      7737.1212      0.98981387     19.77849       260.73171      2567.2749      73.074347      0             -1625.6242      0             -3605.5944     -2330.1376    
     16600   8300           298           -1669.2474     -2350.5592     -408.07831      7653.7144      1.0006004      19.707162      246.02856      2566.2825      67.226301      0             -1633.8931      0             -3596.2035     -2350.5592    
     16700   8350           298           -1636.987      -2318.2988      4797.0749      7627.4984      1.0040395      19.684635      237.43514      2647.6759      68.659391      0             -1665.1214      0             -3606.9478     -2318.2988    
     16800   8400           298           -1665.9858     -2347.2976     -1780.9584      7675.82        0.9977188      19.726116      252.26123      2512.6858      70.517229      0             -1620.1943      0             -3562.5675     -2347.2976    
     16900   8450           298           -1642.8432     -2324.155       644.11445      7758.9422      0.98703015     19.797066      257.64989      2498.8416      73.715354      0             -1602.3774      0             -3551.9844     -2324.155     
     17000   8500           298           -1619.9866     -2301.2985     -2173.4051      7829.2248      0.97816962     19.856663      237.35741      2368.1507      59.606194      0             -1553.0608      0             -3413.352      -2301.2985    
     17100   8550           298           -1611.9007     -2293.2125      921.01785      7830.4537      0.97801611     19.857701      249.72566      2326.3758      51.704244      0             -1535.2724      0             -3385.7458     -2293.2125    
     17200   8600           298           -1598.8565     -2280.1683     -994.21512      7765.6319      0.98617987     19.802754      269.56256      2532.5668      63.404305      0             -1614.0092      0             -3531.6928     -2280.1683    
     17300   8650           298           -1626.6282     -2307.9401      518.23564      7713.1671      0.99288784     19.758058      266.02709      2582.8791      58.37983       0             -1635.525       0             -3579.7011     -2307.9401    
     17400   8700           298           -1629.3013     -2310.6131      1350.5555      7696.4631      0.99504276     19.743784      247.34634      2515.5571      68.620268      0             -1615.3724      0             -3526.7644     -2310.6131    
     17500   8750           298           -1645.0835     -2326.3954     -32.964113      7691.1245      0.99573343     19.739218      255.83049      2418.0351      77.377272      0             -1585.3076      0             -3492.3307     -2326.3954    
     17600   8800           298           -1638.1584     -2319.4702      698.87228      7674.2374      0.99792454     19.724761      263.75283      2590.416       89.730595      0             -1647.7914      0             -3615.5782     -2319.4702    
     17700   8850           298           -1582.0358     -2263.3477      4258.3931      7706.9587      0.99368768     19.752755      278.34916      2626.2953      89.116929      0             -1650.9152      0             -3606.1939     -2263.3477    
     17800   8900           298           -1602.9825     -2284.2943     -1983.1943      7808.9496      0.98070934     19.839507      267.05432      2383.4899      66.914352      0             -1557.8377      0             -3443.9152     -2284.2943    
     17900   8950           298           -1599.6984     -2281.0102      2.9213706      7876.3579      0.97231613     19.896429      257.27436      2367.6285      70.574189      0             -1543.1449      0             -3433.3424     -2281.0102    
     18000   9000           298           -1617.8037     -2299.1156     -1958.3408      7872.9553      0.97273636     19.893564      251.01073      2421.4433      71.542009      0             -1563.6414      0             -3479.4703     -2299.1156    
     18100   9050           298           -1672.1747     -2353.4866     -1174.3102      7820.3496      0.97927973     19.849157      265.84308      2515.8898      71.695158      0             -1600.4205      0             -3606.4941     -2353.4866    
     18200   9100           298           -1663.1974     -2344.5092      676.55535      7752.0543      0.98790714     19.791206      258.0055       2608.0483      71.355064      0             -1637.072       0             -3644.8461     -2344.5092    
     18300   9150           298           -1661.5487     -2342.8606      23.953335      7706.6738      0.9937244      19.752512      263.64263      2572.6352      69.499235      0             -1633.0543      0             -3615.5833     -2342.8606    
     18400   9200           298           -1680.8711     -2362.1829     -272.6211       7680.5761      0.99710097     19.73019       255.54144      2523.2321      72.485135      0             -1622.9905      0             -3590.4511     -2362.1829    
     18500   9250           298           -1682.6474     -2363.9592      1714.1503      7657.2359      1.0001403      19.710184      244.39469      2615.5929      80.109501      0             -1659.3182      0             -3644.738      -2363.9592    
     18600   9300           298           -1675.9852     -2357.297       1664.2643      7655.5065      1.0003662      19.7087        255.89964      2637.0441      73.246521      0             -1664.6825      0             -3658.8048     -2357.297     
     18700   9350           298           -1641.8749     -2323.1867      535.49342      7687.2556      0.99623457     19.735908      267.01255      2616.3822      70.20837       0             -1647.5761      0             -3629.2137     -2323.1867    
     18800   9400           298           -1644.5971     -2325.909       554.97053      7743.6773      0.98897585     19.784075      258.09605      2505.3684      82.291369      0             -1605.3962      0             -3566.2685     -2325.909     
     18900   9450           298           -1615.406      -2296.7179      1280.5125      7798.2221      0.98205844     19.830418      261.18692      2384.2929      81.566421      0             -1555.3069      0             -3468.4572     -2296.7179    
     19000   9500           298           -1585.215      -2266.5268     -855.33001      7827.2595      0.97841522     19.855001      275.77824      2517.4528      76.371577      0             -1591.6329      0             -3544.4966     -2266.5268    
     19100   9550           298           -1588.1453     -2269.4571      733.43116      7868.475       0.97329023     19.88979       265.85331      2493.5035      74.597763      0             -1580.0493      0             -3523.3624     -2269.4571    
     19200   9600           298           -1598.8416     -2280.1535      1045.2068      7922.0249      0.96671115     19.934809      252.18816      2464.0893      69.344508      0             -1567.3624      0             -3498.4131     -2280.1535    
     19300   9650           298           -1622.0941     -2303.4059     -1022.4347      7970.297       0.96085627     19.975217      276.91889      2449.9158      70.268207      0             -1556.7421      0             -3543.7667     -2303.4059    
     19400   9700           298           -1635.3562     -2316.6681     -2238.9247      7980.2883      0.95965328     19.98356       269.82581      2438.3291      71.140821      0             -1557.8568      0             -3538.107      -2316.6681    
     19500   9750           298           -1609.5317     -2290.8435     -2363.3416      7922.6774      0.96663154     19.935356      283.29547      2412.4164      72.543653      0             -1550.4609      0             -3508.6381     -2290.8435    
     19600   9800           298           -1626.3384     -2307.6502      578.36004      7810.4476      0.98052125     19.840775      246.50829      2525.221       76.730046      0             -1600.7282      0             -3555.3814     -2307.6502    
     19700   9850           298           -1590.7424     -2272.0542      1471.5032      7713.7188      0.99281683     19.758529      284.60691      2680.5802      63.75199       0             -1661.3902      0             -3639.6031     -2272.0542    
     19800   9900           298           -1653.445      -2334.7568     -248.67522      7686.666       0.996311       19.735403      259.6224       2601.2259      52.941695      0             -1643.0133      0             -3605.5335     -2334.7568    
     19900   9950           298           -1677.801      -2359.1128      1032.131       7703.2649      0.99416416     19.749599      258.55021      2632.6402      61.85225       0             -1651.9879      0             -3660.1675     -2359.1128    
     20000   10000          298           -1686.8671     -2368.1789     -1295.0815      7744.8843      0.98882172     19.785103      250.30533      2575.2984      61.617363      0             -1629.6075      0             -3625.7926     -2368.1789    
     20100   10050          298           -1682.9221     -2364.2339     -249.81368      7775.9521      0.98487102     19.811523      248.34202      2463.4549      64.641406      0             -1584.4567      0             -3556.2156     -2364.2339    
     20200   10100          298           -1656.0649     -2337.3767     -1986.699       7756.0333      0.98740033     19.794592      270.67564      2528.4802      67.941333      0             -1610.0777      0             -3594.3961     -2337.3767    
     20300   10150          298           -1671.8728     -2353.1846      1195.1916      7715.2795      0.992616       19.759861      251.12014      2557.2792      56.179873      0             -1624.4533      0             -3593.3106     -2353.1846    
     20400   10200          298           -1635.4146     -2316.7264      1090.8903      7683.663       0.99670038     19.732833      258.98747      2547.4737      64.458669      0             -1621.1416      0             -3566.5046     -2316.7264    
     20500   10250          298           -1693.411      -2374.7228     -1587.0184      7668.5256      0.99866784     19.719866      266.44624      2576.2438      73.75361       0             -1639.2514      0             -3651.9151     -2374.7228    
     20600   10300          298           -1676.4371     -2357.7489      3627.3456      7646.8651      1.0014967      19.701281      243.27214      2610.1648      89.110511      0             -1651.9995      0             -3648.2969     -2357.7489    
     20700   10350          298           -1650.4569     -2331.7687     -2349.9795      7634.7509      1.0030858      19.690872      296.66388      2502.2022      84.32724       0             -1623.1683      0             -3591.7938     -2331.7687    
     20800   10400          298           -1637.3284     -2318.6402      1636.0312      7617.8956      1.0053052      19.676371      277.96887      2530.0273      73.493033      0             -1631.7507      0             -3568.3787     -2318.6402    
     20900   10450          298           -1605.5512     -2286.863       3849.1663      7615.3489      1.0056414      19.674178      255.85583      2497.9301      80.398664      0             -1618.3779      0             -3502.6697     -2286.863     
     21000   10500          298           -1606.0853     -2287.3971     -1655.8412      7633.9951      1.0031851      19.690223      283.85832      2494.2849      81.752248      0             -1617.3803      0             -3529.9123     -2287.3971    
     21100   10550          298           -1599.9725     -2281.2844     -58.434364      7669.3355      0.99856237     19.72056       279.86431      2491.5156      69.516028      0             -1612.7256      0             -3509.4547     -2281.2844    
     21200   10600          298           -1624.6331     -2305.945       1058.4547      7710.6146      0.99321653     19.755878      270.73973      2490.66        75.056711      0             -1604.2325      0             -3538.1689     -2305.945     
     21300   10650          298           -1648.932      -2330.2438     -209.74952      7740.0275      0.9894422      19.780966      259.92193      2482.8065      68.128683      0             -1598.2176      0             -3542.8834     -2330.2438    
     21400   10700          298           -1662.296      -2343.6078     -1258.8894      7746.5256      0.98861222     19.7865        271.59185      2569.2813      71.881566      0             -1634.6266      0             -3621.736      -2343.6078    
     21500   10750          298           -1654.2816     -2335.5934      1701.7725      7745.6245      0.98872723     19.785733      238.05782      2494.4783      73.154575      0             -1604.6911      0             -3536.5929     -2335.5934    
     21600   10800          298           -1682.4786     -2363.7905     -1195.0326      7728.7909      0.99088071     19.771389      269.46223      2593.2298      75.551293      0             -1636.7933      0             -3665.2404     -2363.7905    
     21700   10850          298           -1648.2066     -2329.5184     -2275.0016      7712.2969      0.99299987     19.757315      296.86968      2561.4172      78.705744      0             -1628.347       0             -3638.164      -2329.5184    
     21800   10900          298           -1652.9657     -2334.2775     -580.92341      7696.0489      0.99509631     19.74343       285.56856      2532.0238      71.998177      0             -1614.7904      0             -3609.0776     -2334.2775    
     21900   10950          298           -1655.2209     -2336.5327     -1079.2851      7648.5083      1.0012815      19.702693      270.92832      2509.4416      66.019225      0             -1614.6257      0             -3568.2961     -2336.5327    
     22000   11000          298           -1667.5297     -2348.8416     -2770.8366      7568.4461      1.0118735      19.633704      281.21977      2611.656       69.552229      0             -1660.2421      0             -3651.0275     -2348.8416    
     22100   11050          298           -1706.029      -2387.3409      2132.1944      7498.7462      1.0212787      19.573247      275.48877      2684.0109      71.40811       0             -1695.0463      0             -3723.2023     -2387.3409    
     22200   11100          298           -1690.3213     -2371.6331     -938.76714      7470.8778      1.0250884      19.54897       271.612        2693.9926      67.730842      0             -1703.4686      0             -3701.4999     -2371.6331    
     22300   11150          298           -1670.3156     -2351.6274      1726.7748      7487.2439      1.0228477      19.563234      276.78667      2676.2122      64.834801      0             -1686.5207      0             -3682.9404     -2351.6274    
     22400   11200          298           -1671.1968     -2352.5086     -2021.9936      7532.497       1.0167027      19.602569      265.49045      2563.8099      68.248441      0             -1647.1324      0             -3602.925      -2352.5086    
     22500   11250          298           -1647.3007     -2328.6126      1345.9554      7574.1579      1.0111104      19.638642      277.68057      2500.2684      75.623532      0             -1622.2901      0             -3559.8949     -2328.6126    
     22600   11300          298           -1633.4931     -2314.8049     -1173.4834      7583.2052      1.0099041      19.646458      274.13735      2488.2893      63.311909      0             -1614.2369      0             -3526.3066     -2314.8049    
     22700   11350          298           -1640.8413     -2322.1531     -290.2845       7563.0196      1.0125995      19.629011      284.48668      2528.5702      78.789026      0             -1626.9649      0             -3587.0341     -2322.1531    
     22800   11400          298           -1692.6188     -2373.9307     -277.46736      7510.0238      1.0197451      19.583055      264.97333      2566.3758      77.891301      0             -1645.7081      0             -3637.463      -2373.9307    
     22900   11450          298           -1697.148      -2378.4598     -322.06186      7441.5547      1.0291277      19.52336       277.78311      2679.7741      68.879186      0             -1694.453       0             -3710.4432     -2378.4598    
     23000   11500          298           -1697.6718     -2378.9837      4302.8983      7395.7254      1.0355049      19.483199      260.3703       2748.8068      76.605032      0             -1721.2515      0             -3743.5143     -2378.9837    
     23100   11550          298           -1689.9919     -2371.3038      152.15764      7419.4391      1.0321953      19.504         299.51671      2824.7929      75.823922      0             -1744.8163      0             -3826.621      -2371.3038    
     23200   11600          298           -1694.7514     -2376.0632      1123.9672      7536.6119      1.0161476      19.606138      268.37238      2658.4674      77.958336      0             -1678.2973      0             -3702.564      -2376.0632    
     23300   11650          298           -1645.5182     -2326.83       -3175.4815      7689.816       0.99590287     19.738099      298.68361      2471.9134      66.558535      0             -1602.7459      0             -3561.2396     -2326.83      
     23400   11700          298           -1635.4956     -2316.8074     -54.95007       7790.6511      0.98301282     19.823998      265.66812      2378.336       74.562382      0             -1558.0792      0             -3477.2947     -2316.8074    
     23500   11750          298           -1626.8497     -2308.1615     -1634.3466      7809.8891      0.98059137     19.840303      297.50328      2435.1224      77.664493      0             -1576.3629      0             -3542.0889     -2308.1615    
     23600   11800          298           -1613.753      -2295.0648     -970.46992      7760.8432      0.98678838     19.798683      281.49184      2406.2869      68.65714       0             -1572.8995      0             -3478.6011     -2295.0648    
     23700   11850          298           -1627.6422     -2308.954       67.791709      7673.1508      0.99806586     19.72383       278.11422      2511.8633      68.230552      0             -1609.5782      0             -3557.5839     -2308.954     
     23800   11900          298           -1678.4251     -2359.7369     -793.30019      7596.0142      1.0082011      19.657514      278.6769       2650.4608      53.805621      0             -1668.5794      0             -3674.1009     -2359.7369    
     23900   11950          298           -1679.2798     -2360.5917      585.07007      7554.5841      1.0137302      19.62171       284.81074      2693.3617      53.501201      0             -1690.3013      0             -3701.964      -2360.5917    
     24000   12000          298           -1652.7247     -2334.0365      3439.9565      7552.0592      1.0140691      19.619524      272.07697      2630.126       67.972354      0             -1667.1682      0             -3637.0436     -2334.0365    
     24100   12050          298           -1676.6164     -2357.9282     -1969.773       7579.7178      1.0103687      19.643446      307.57674      2608.0318      74.515435      0             -1662.2641      0             -3685.7881     -2357.9282    
     24200   12100          298           -1666.1997     -2347.5115      1224.4905      7597.7369      1.0079725      19.659         264.61147      2569.8237      69.037918      0             -1640.4519      0             -3610.5327     -2347.5115    
     24300   12150          298           -1690.649      -2371.9608     -3365.8523      7602.1137      1.0073922      19.662774      282.37508      2533.325       74.325503      0             -1634.5929      0             -3627.3934     -2371.9608    
     24400   12200          298           -1660.4411     -2341.7529      1091.9038      7582.2801      1.0100273      19.645659      277.76072      2596.843       65.455963      0             -1651.7507      0             -3630.0619     -2341.7529    
     24500   12250          298           -1710.8642     -2392.1761      1724.2135      7570.9748      1.0115355      19.63589       262.35082      2703.3566      74.669096      0             -1689.0122      0             -3743.5404     -2392.1761    
     24600   12300          298           -1717.7204     -2399.0322      185.61919      7590.8122      1.008892       19.653025      266.80049      2624.8921      72.086233      0             -1660.915       0             -3701.8961     -2399.0322    
     24700   12350          298           -1731.2214     -2412.5332     -1371.407       7613.5504      1.0058789      19.672629      258.19933      2582.4747      67.385575      0             -1643.9203      0             -3676.6726     -2412.5332    
     24800   12400          298           -1703.1248     -2384.4367     -376.69696      7613.1846      1.0059273      19.672314      270.8128       2581.8522      70.383869      0             -1640.5002      0             -3666.9854     -2384.4367    
     24900   12450          298           -1675.607      -2356.9188      1731.6432      7600.782       1.0075687      19.661626      273.20363      2585.0875      62.741093      0             -1640.9657      0             -3636.9854     -2356.9188    
     25000   12500          298           -1667.7984     -2349.1102     -1680.2216      7581.0265      1.0101943      19.644577      276.76953      2554.9338      64.359637      0             -1635.0428      0             -3610.1303     -2349.1102    
     25100   12550          298           -1690.7868     -2372.0986      1590.2427      7549.2216      1.0144503      19.617066      265.49885      2669.1502      68.284295      0             -1671.7775      0             -3703.2545     -2372.0986    
     25200   12600          298           -1682.6378     -2363.9497      1870.7819      7548.6531      1.0145267      19.616574      289.25888      2802.1296      66.045011      0             -1723.0936      0             -3798.2895     -2363.9497    
     25300   12650          298           -1672.6318     -2353.9436     -1581.3004      7613.4231      1.0058957      19.67252       308.84059      2676.2951      73.818483      0             -1669.1545      0             -3743.7433     -2353.9436    
     25400   12700          298           -1684.6236     -2365.9354     -1696.3843      7695.2819      0.99519549     19.742774      287.78582      2454.3892      57.873961      0             -1594.0511      0             -3571.9333     -2365.9354    
     25500   12750          298           -1670.1373     -2351.4492     -512.42936      7714.0364      0.99277596     19.7588        270.97116      2477.8537      58.184176      0             -1598.0236      0             -3560.4346     -2351.4492    
     25600   12800          298           -1656.5975     -2337.9093     -2370.5665      7671.3882      0.99829518     19.722319      280.45869      2480.7711      66.245125      0             -1601.1104      0             -3564.2738     -2337.9093    
     25700   12850          298           -1654.681      -2335.9928      223.39949      7594.2883      1.0084302      19.656025      289.38118      2537.1178      74.111443      0             -1626.6153      0             -3609.9879     -2335.9928    
     25800   12900          298           -1663.2874     -2344.5992      785.64789      7514.1361      1.019187       19.586628      277.64484      2641.2113      68.572777      0             -1670.0987      0             -3661.9294     -2344.5992    
     25900   12950          298           -1639.5938     -2320.9057      2579.0517      7481.7527      1.0235984      19.558451      296.21088      2685.3964      76.318006      0             -1690.1066      0             -3688.7243     -2320.9057    
     26000   13000          298           -1653.8335     -2335.1454      2270.0348      7520.0214      1.0183894      19.591741      282.07417      2608.3747      81.769486      0             -1662.7144      0             -3644.6493     -2335.1454    
     26100   13050          298           -1650.3216     -2331.6334     -1048.6339      7585.6755      1.0095752      19.648591      310.85205      2549.1362      72.372537      0             -1632.7062      0             -3631.288      -2331.6334    
     26200   13100          298           -1607.6287     -2288.9405     -1186.6059      7639.4231      1.0024723      19.694888      299.03676      2516.795       72.766004      0             -1616.2129      0             -3561.3254     -2288.9405    
     26300   13150          298           -1643.619      -2324.9308     -676.71433      7675.4791      0.99776311     19.725824      274.49501      2451.7326      72.929025      0             -1589.8205      0             -3534.267      -2324.9308    
     26400   13200          298           -1638.6702     -2319.982      -698.56602      7666.9042      0.99887903     19.718476      282.82915      2481.2375      59.942488      0             -1600.3776      0             -3543.6135     -2319.982     
     26500   13250          298           -1684.0452     -2365.357      -1008.5543      7608.6535      1.0065263      19.668411      285.95191      2517.2818      59.128281      0             -1618.3107      0             -3609.4083     -2365.357     
     26600   13300          298           -1682.4864     -2363.7982     -65.9024        7523.9138      1.0178625      19.59512       290.81922      2632.1637      74.228395      0             -1672.0402      0             -3688.9693     -2363.7982    
     26700   13350          298           -1682.8876     -2364.1994      2523.2803      7471.3647      1.0250216      19.549395      265.38438      2741.0181      73.050993      0             -1707.4044      0             -3736.2486     -2364.1994    
     26800   13400          298           -1672.3529     -2353.6647      1864.0423      7490.911       1.0223469      19.566428      284.64032      2726.1853      81.807502      0             -1701.807       0             -3744.4909     -2353.6647    
     26900   13450          298           -1674.1449     -2355.4567     -484.49206      7563.3438      1.0125561      19.629291      277.63946      2619.2653      73.413199      0             -1661.5293      0             -3664.2454     -2355.4567    
     27000   13500          298           -1662.6201     -2343.9319     -1002.1728      7640.6454      1.0023119      19.695939      287.18242      2560.8916      78.134837      0             -1628.0001      0             -3642.1407     -2343.9319    
     27100   13550          298           -1640.0192     -2321.3311      5.1243732      7697.1033      0.99495999     19.744332      287.36591      2491.9901      72.702753      0             -1601.6019      0             -3571.788      -2321.3311    
     27200   13600          298           -1630.7201     -2312.0319     -113.02396      7713.3136      0.99286898     19.758183      285.86017      2487.9636      82.203949      0             -1596.089       0             -3571.9707     -2312.0319    
     27300   13650          298           -1668.9687     -2350.2805     -1064.8413      7678.2497      0.99740308     19.728198      277.13473      2467.4931      68.135757      0             -1593.1364      0             -3569.9077     -2350.2805    
     27400   13700          298           -1668.8796     -2350.1914     -111.07586      7579.5685      1.0103886      19.643317      283.34754      2629.9026      55.847795      0             -1655.95        0             -3663.3394     -2350.1914    
     27500   13750          298           -1654.5308     -2335.8426      1626.6338      7484.5483      1.023216       19.560886      280.89012      2623.4223      67.999865      0             -1668.2051      0             -3639.9498     -2335.8426    
     27600   13800          298           -1662.7948     -2344.1066      1662.3295      7440.3968      1.0292878      19.522347      273.79646      2670.5854      63.054506      0             -1690.3321      0             -3661.2109     -2344.1066    
     27700   13850          298           -1697.5026     -2378.8145     -490.75761      7445.5433      1.0285764      19.526847      280.37138      2730.8056      68.620169      0             -1715.0147      0             -3743.597      -2378.8145    
     27800   13900          298           -1704.9834     -2386.2953      1161.937       7486.988       1.0228826      19.563012      274.35166      2635.6386      78.56957       0             -1675.6832      0             -3699.1719     -2386.2953    
     27900   13950          298           -1716.9356     -2398.2474      1343.9519      7534.1935      1.0164737      19.60404       275.88854      2721.2361      66.814177      0             -1694.9315      0             -3767.2547     -2398.2474    
     28000   14000          298           -1724.2308     -2405.5426     -1422.9319      7592.2501      1.0087009      19.654266      286.21696      2678.1281      65.783017      0             -1675.6985      0             -3759.9722     -2405.5426    
     28100   14050          298           -1684.3601     -2365.6719      473.93217      7631.7924      1.0034746      19.688329      298.13297      2580.7463      60.484371      0             -1639.0273      0             -3666.0083     -2365.6719    
[...]
    193800   96900          298           -1738.4919     -2419.8038      128.5373       7690.9489      0.99575617     19.739068      294.44996      2763.6507      67.914506      0             -1696.5651      0             -3849.2538     -2419.8038    
    193900   96950          298           -1736.1703     -2417.4822      1222.4459      7679.6941      0.99721549     19.729435      293.0041       2747.5727      69.097207      0             -1691.8938      0             -3835.2624     -2417.4822    
    194000   97000          298           -1761.9738     -2443.2857     -1221.4799      7676.243       0.99766381     19.726479      281.64704      2698.9128      68.272601      0             -1677.6327      0             -3814.4854     -2443.2857    
    194100   97050          298           -1720.2918     -2401.6036      1093.3466      7664.8198      0.99915067     19.716689      332.76189      2797.5651      76.34065       0             -1709.9994      0             -3898.2718     -2401.6036    
    194200   97100          298           -1709.2959     -2390.6078      137.81739      7672.4976      0.99815084     19.72327       296.40071      2678.3901      78.536292      0             -1669.6751      0             -3774.2597     -2390.6078    
    194300   97150          298           -1698.6121     -2379.9239      1813.1877      7682.3516      0.99687053     19.73171       316.11461      2684.0513      74.950625      0             -1668.0628      0             -3786.9777     -2379.9239    
    194400   97200          298           -1725.4629     -2406.7747      481.08956      7689.3631      0.99596153     19.737711      318.48117      2786.0735      76.428474      0             -1708.1953      0             -3879.5625     -2406.7747    
    194500   97250          298           -1737.3761     -2418.6879     -3023.6164      7699.3254      0.99467284     19.746232      300.70018      2580.5031      72.699402      0             -1635.098       0             -3737.4926     -2418.6879    
    194600   97300          298           -1707.5026     -2388.8145     -191.05155      7651.8159      1.0008487      19.705532      292.48275      2552.9874      72.466632      0             -1629.7259      0             -3677.0253     -2388.8145    
    194700   97350          298           -1705.9811     -2387.293       1641.4485      7551.3074      1.0141701      19.618873      307.5551       2712.5633      77.374953      0             -1694.7219      0             -3790.0645     -2387.293     
    194800   97400          298           -1704.6334     -2385.9452      4004.1838      7469.0897      1.0253338      19.54741       300.46251      2887.7832      84.522823      0             -1762.2163      0             -3896.4974     -2385.9452    
    194900   97450          298           -1715.1064     -2396.4182     -1622.9866      7481.1689      1.0236782      19.557942      320.09367      2836.8906      73.724338      0             -1748.6612      0             -3878.4657     -2396.4182    
    195000   97500          298           -1728.4717     -2409.7835     -379.68036      7556.7215      1.0134434      19.62356       301.05393      2681.1213      76.166762      0             -1683.5043      0             -3784.6212     -2409.7835    
    195100   97550          298           -1712.4532     -2393.765      -628.31247      7620.2433      1.0049955      19.678392      282.63956      2593.8971      69.931884      0             -1647.5411      0             -3692.6924     -2393.765     
    195200   97600          298           -1667.3316     -2348.6434     -1925.8169      7651.3682      1.0009072      19.705148      344.17516      2632.1663      72.75055       0             -1657.6229      0             -3740.1126     -2348.6434    
    195300   97650          298           -1670.3737     -2351.6855      1602.9804      7654.5239      1.0004946      19.707857      300.49768      2651.0882      80.392934      0             -1658.8708      0             -3724.7935     -2351.6855    
    195400   97700          298           -1720.4186     -2401.7304     -1718.6397      7651.9669      1.0008289      19.705662      314.20984      2692.307       87.42676       0             -1679.1375      0             -3816.5365     -2401.7304    
    195500   97750          298           -1731.6623     -2412.9741      438.45341      7647.5589      1.0014058      19.701877      288.81786      2656.3395      77.475906      0             -1663.9493      0             -3771.6582     -2412.9741    
    195600   97800          298           -1707.3788     -2388.6906      1703.6929      7635.0081      1.003052       19.691093      301.18591      2794.5413      85.785001      0             -1711.9433      0             -3858.2596     -2388.6906    
    195700   97850          298           -1727.8151     -2409.127       558.45641      7659.7783      0.99980829     19.712365      315.8552       2928.735       74.475676      0             -1751.2259      0             -3976.967      -2409.127     
    195800   97900          298           -1716.5939     -2397.9057      3099.6616      7747.4404      0.98849549     19.787279      278.48648      2808.4655      73.562657      0             -1700.756       0             -3857.6643     -2397.9057    
    195900   97950          298           -1700.2287     -2381.5405     -2988.101       7866.7441      0.97350439     19.888331      307.56866      2579.01        74.473197      0             -1613.1675      0             -3729.4248     -2381.5405    
    196000   98000          298           -1676.2127     -2357.5245     -1199.5971      7920.3296      0.96691807     19.933386      309.33815      2578.0048      63.481827      0             -1611.0497      0             -3697.2997     -2357.5245    
    196100   98050          298           -1661.173      -2342.4848      102.95962      7914.982       0.96757135     19.928899      314.82063      2634.9542      53.024957      0             -1627.716       0             -3717.5686     -2342.4848    
    196200   98100          298           -1691.391      -2372.7028      498.5699       7888.1604      0.97086133     19.906363      314.71756      2629.2363      65.666415      0             -1627.8464      0             -3754.4768     -2372.7028    
    196300   98150          298           -1686.6675     -2367.9793     -46.662219      7844.2706      0.97629343     19.869374      305.02263      2725.9111      60.575994      0             -1665.7349      0             -3793.7541     -2367.9793    
    196400   98200          298           -1726.3107     -2407.6225      2966.1183      7802.3132      0.9815435      19.833885      276.49255      2672.8261      72.648484      0             -1650.059       0             -3779.5306     -2407.6225    
    196500   98250          298           -1715.7214     -2397.0332      2117.4291      7745.4631      0.98874783     19.785596      283.3071       2693.8504      73.653586      0             -1665.6345      0             -3782.2098     -2397.0332    
    196600   98300          298           -1709.023      -2390.3348     -1425.1842      7674.3542      0.99790936     19.724861      309.87293      2707.4654      68.473577      0             -1681.8058      0             -3794.3409     -2390.3348    
    196700   98350          298           -1699.8939     -2381.2058     -2934.7232      7615.456       1.0056272      19.67427       323.73695      2705.4383      64.08844       0             -1689.616       0             -3784.8535     -2381.2058    
    196800   98400          298           -1707.2014     -2388.5132      2552.3608      7593.3881      1.0085498      19.655248      309.60136      2833.4914      73.02567       0             -1729.0109      0             -3875.6207     -2388.5132    
    196900   98450          298           -1750.7365     -2432.0483     -342.27726      7626.3616      1.0041892      19.683657      272.75888      2685.7882      83.242464      0             -1681.3874      0             -3792.4506     -2432.0483    
    197000   98500          298           -1721.3168     -2402.6286      744.45667      7648.7951      1.001244       19.702939      307.64334      2672.433       76.793932      0             -1667.7689      0             -3791.73       -2402.6286    
    197100   98550          298           -1711.3919     -2392.7038     -2406.1826      7631.0635      1.0035705      19.687702      312.61875      2608.7132      72.219147      0             -1655.1222      0             -3731.1327     -2392.7038    
    197200   98600          298           -1699.9769     -2381.2887      3621.936       7592.7591      1.0086333      19.654705      312.33594      2812.1234      79.016726      0             -1716.9838      0             -3867.781      -2381.2887    
    197300   98650          298           -1704.0342     -2385.346       63.153252      7605.5119      1.0069421      19.665703      308.75315      2733.8387      69.474415      0             -1696.1357      0             -3801.2766     -2385.346     
    197400   98700          298           -1711.3877     -2392.6995     -161.14803      7648.7003      1.0012564      19.702857      316.47384      2706.9339      77.37232       0             -1680.2621      0             -3813.2175     -2392.6995    
    197500   98750          298           -1707.3426     -2388.6544     -145.6211       7682.6445      0.99683252     19.731961      308.66266      2685.0538      76.302101      0             -1664.4546      0             -3794.2184     -2388.6544    
    197600   98800          298           -1729.7858     -2411.0976     -225.78295      7678.5449      0.99736473     19.728451      299.59525      2612.8064      78.133614      0             -1643.174       0             -3758.4589     -2411.0976    
    197700   98850          298           -1684.8716     -2366.1835     -747.45875      7624.4334      1.0044431      19.681998      323.46384      2722.271       72.746317      0             -1683.305       0             -3801.3597     -2366.1835    
    197800   98900          298           -1707.8361     -2389.1479     -2147.4895      7558.9505      1.0131446      19.62549       304.11173      2681.9107      74.834232      0             -1684.6384      0             -3765.3662     -2389.1479    
    197900   98950          298           -1693.4137     -2374.7256      2281.2895      7505.3177      1.0203845      19.578963      310.55452      2751.1884      77.637249      0             -1710.8445      0             -3803.2613     -2374.7256    
    198000   99000          298           -1707.9725     -2389.2843     -1413.1237      7494.2515      1.0218912      19.569336      303.14189      2755.3083      75.466114      0             -1716.8339      0             -3806.3667     -2389.2843    
    198100   99050          298           -1727.9271     -2409.2389      2422.0659      7527.7734      1.0173407      19.59847       300.09594      2680.4861      72.690177      0             -1685.2543      0             -3777.2568     -2409.2389    
    198200   99100          298           -1702.2166     -2383.5284     -2736.8416      7580.0221      1.0103282      19.643709      314.13775      2779.4408      71.520449      0             -1715.0682      0             -3833.5592     -2383.5284    
    198300   99150          298           -1717.5116     -2398.8235      2657.3827      7659.7505      0.99981192     19.712341      285.91283      2625.6712      65.93257       0             -1653.2123      0             -3723.1277     -2398.8235    
    198400   99200          298           -1681.9027     -2363.2146     -1779.7262      7726.0131      0.99123698     19.76902       308.496        2572.3746      71.575521      0             -1629.6765      0             -3685.9841     -2363.2146    
    198500   99250          298           -1688.7822     -2370.0941     -558.04901      7759.9146      0.98690647     19.797893      313.77201      2617.1622      71.306572      0             -1642.3177      0             -3730.0172     -2370.0941    
    198600   99300          298           -1714.4881     -2395.7999      571.44024      7766.7224      0.98604141     19.803681      303.79383      2778.1764      75.332776      0             -1691.8777      0             -3861.2253     -2395.7999    
    198700   99350          298           -1710.9126     -2392.2245      437.3767       7782.4214      0.98405233     19.817015      317.22797      2748.7653      67.752505      0             -1686.8759      0             -3839.0943     -2392.2245    
    198800   99400          298           -1721.4335     -2402.7453     -2.0034698      7789.761       0.98312513     19.823243      307.99677      2708.3006      55.820661      0             -1671.439       0             -3803.4244     -2402.7453    
    198900   99450          298           -1722.6014     -2403.9133     -481.32109      7783.1152      0.98396461     19.817604      328.85138      2874.1437      55.349093      0             -1728.4033      0             -3933.8541     -2403.9133    
    199000   99500          298           -1728.4407     -2409.7526      1988.4813      7815.9845      0.97982665     19.845463      320.55279      2809.9191      68.691841      0             -1702.376       0             -3906.5403     -2409.7526    
    199100   99550          298           -1723.7981     -2405.11       -92.574088      7883.3544      0.9714532      19.902319      300.86818      2697.2562      64.789323      0             -1655.5241      0             -3812.4996     -2405.11      
    199200   99600          298           -1681.2151     -2362.5269     -2297.9144      7925.7215      0.96626028     19.937909      328.66936      2606.5784      72.357877      0             -1620.0197      0             -3750.1129     -2362.5269    
    199300   99650          298           -1679.2642     -2360.5761     -272.02949      7903.5458      0.9689714      19.919296      305.35234      2547.9026      70.498132      0             -1604.6073      0             -3679.7218     -2360.5761    
    199400   99700          298           -1648.8905     -2330.2023     -2151.4227      7795.8075      0.98236262     19.828371      356.2301       2570.5837      65.298882      0             -1623.0161      0             -3699.2989     -2330.2023    
    199500   99750          298           -1694.096      -2375.4078      3640.744       7624.5447      1.0044285      19.682094      323.01269      2914.4398      73.891291      0             -1752.2714      0             -3934.4803     -2375.4078    
    199600   99800          298           -1736.8772     -2418.189       1442.9895      7513.3003      1.0193004      19.585902      312.34671      2917.3285      70.845633      0             -1765.4663      0             -3953.2435     -2418.189     
    199700   99850          298           -1706.2778     -2387.5897      1147           7482.561       1.0234878      19.559155      334.90479      2807.9482      64.869385      0             -1732.03        0             -3863.2821     -2387.5897    
    199800   99900          298           -1729.1225     -2410.4343      1778.4768      7497.5326      1.021444       19.572191      303.30135      2796.5085      68.643546      0             -1724.5384      0             -3854.3493     -2410.4343    
    199900   99950          298           -1721.2649     -2402.5767     -36.296626      7537.7687      1.0159916      19.607141      338.99787      2637.6148      52.940917      0             -1671.6257      0             -3760.5046     -2402.5767    
    200000   100000         298           -1662.1221     -2343.4339     -1332.3831      7554.5802      1.0137307      19.621707      322.06042      2651.881       75.060278      0             -1674.0319      0             -3718.4037     -2343.4339    
Loop time of 999.469 on 8 procs for 2001 steps with 768 atoms


[MBX] Total MBX fix/pair time= 999.474435 seconds
[MBX] Timing Summary
[MBX] kernel                      tmin          tavg          tmax         count   %total
[MBX] -----------------------------------------------------------------------------------
[MBX] INIT                :        38.494         38.71         38.94      2001     3.90%
[MBX] UPDATE_XYZ          :       0.30419        0.3162       0.32087      2001     0.03%
[MBX] ACCUMULATE_F        :       0.37644       0.37772       0.37884     10005     0.04%
[MBX] E1B                 :         6.823        6.8765         6.939      2001     0.69%
[MBX] E2B_LOCAL           :             0             0             0         0     0.00%
[MBX] E2B_GHOST           :        19.023        19.826        20.611      2001     2.06%
[MBX] E3B_LOCAL           :             0             0             0         0     0.00%
[MBX] E3B_GHOST           :        133.34        136.24        138.62      2001    13.87%
[MBX] E4B_LOCAL           :             0             0             0         0     0.00%
[MBX] E4B_GHOST           :        6.4436         6.478         6.541      2001     0.65%
[MBX] DISP                :        124.93        125.45        125.81      2001    12.59%
[MBX] DISP_PME            :        40.089         43.02        46.535      2001     4.66%
[MBX] BUCK                :    6.0571e-05    6.0776e-05    6.1049e-05      2001     0.00%
[MBX] ELE                 :        567.16        567.77        568.06      2001    56.84%
[MBX] INIT_FULL           :             0             0             0         0     0.00%
[MBX] UPDATE_XYZ_FULL     :             0             0             0         0     0.00%
[MBX] ACCUMULATE_F_FULL   :             0             0             0         0     0.00%
[MBX] INIT_LOCAL          :        36.628         36.86        37.041      2001     3.71%
[MBX] UPDATE_XYZ_LOCAL    :      0.074022       0.07525      0.076604      2001     0.01%
[MBX] ACCUMULATE_F_LOCAL  :       0.26974       0.27707       0.28101      4002     0.03%


[MBX] Electrostatics Summary
[MBX] kernel                      tmin          tavg          tmax         count   %total
[MBX] -----------------------------------------------------------------------------------
[MBX] ELE_PERMDIP_REAL    :        30.056        30.292        30.725      2001     3.07%
[MBX] ELE_PERMDIP_PME     :        23.488        23.984        24.393      2001     2.44%
[MBX] ELE_DIPFIELD_REAL   :        129.56        130.62        131.85     44426    13.19%
[MBX] ELE_DIPFIELD_PME    :        306.92        307.81        309.02     44426    30.92%
[MBX] ELE_GRAD_REAL       :        19.126        19.297        19.408      2001     1.94%
[MBX] ELE_GRAD_PME        :        27.084        27.224        27.399      2001     2.74%
[MBX] ELE_GRAD_FIN        :       0.85763       0.86003       0.86374      2001     0.09%
[MBX] ELE_PME_SETUP       :        216.84        218.93        221.82     48428    22.19%
[MBX] ELE_PME_C           :        14.523        14.566        14.609      4002     1.46%
[MBX] ELE_PME_D           :        110.52        111.47        112.59     46427    11.26%
[MBX] ELE_PME_E           :        6.0178        6.0696        6.1113      2001     0.61%
[MBX] DISP_PME_SETUP      :        31.925         34.88        38.452      2001     3.85%
[MBX] DISP_PME_E          :        6.8473        6.8963        6.9374      2001     0.69%
[MBX] ELE_COMM_REVFOR     :        21.204        21.555        22.015     46427     2.20%
[MBX] ELE_COMM_REVSET     :        5.2664        5.2958        5.3284      2001     0.53%
[MBX] ELE_COMM_REV        :        3.3095        3.6058          4.06     44426     0.41%
[MBX] ELE_COMM_FORSET     :        8.9299        8.9583         8.988      2001     0.90%
[MBX] ELE_COMM_FOR        :        3.1556        3.1742        3.1862     44426     0.32%
Total wall time: 0:16:39
